  175  175 1000    2
  0.2196706E+02  0.2581126E-08  0.2545686E-08  0.6707892E-09  0.5000000E-15
  1.000000000000000E-004
  CAR 
 Co–organic framework                  
    844      1    540
