 running on   24 total cores
 distrk:  each k-point on   24 cores,    1 groups
 distr:  one band on    4 cores,    6 groups
 using from now: INCAR     
 vasp.5.4.4.18Apr17-6-g9f103f2a35 (build May 21 2019 18:55:53) complex          
  
 POSCAR found type information on POSCAR  O  C  H  Co Li
 POSCAR found :  5 types and     175 ions
 LDA part: xc-table for Pade appr. of Perdew
 POSCAR found type information on POSCAR  O  C  H  Co Li
 POSCAR found :  5 types and     175 ions
 POSCAR, INCAR and KPOINTS ok, starting setup
 FFT: planning ...
 WAVECAR not read
 WARNING: random wavefunctions but no delay for mixing, default for NELMDL
 entering main loop
       N       E                     dE             d eps       ncg     rms          rms(c)
DAV:   1     0.904500446880E+04    0.90450E+04   -0.36565E+05  2160   0.137E+03
DAV:   2     0.799239134809E+03   -0.82458E+04   -0.74356E+04  2484   0.429E+02
DAV:   3    -0.131591942389E+04   -0.21152E+04   -0.20052E+04  3612   0.212E+02
DAV:   4    -0.147858548331E+04   -0.16267E+03   -0.15188E+03  3360   0.663E+01
DAV:   5    -0.148695102732E+04   -0.83655E+01   -0.77032E+01  3612   0.144E+01    0.163E+02
RMM:   6    -0.205492276727E+04   -0.56797E+03   -0.37568E+03  2976   0.137E+02    0.556E+02
RMM:   7    -0.182630784535E+04    0.22861E+03   -0.26837E+02  2174   0.456E+01    0.352E+02
RMM:   8    -0.128802919751E+04    0.53828E+03   -0.56544E+02  2350   0.476E+01    0.904E+01
RMM:   9    -0.150371207780E+04   -0.21568E+03   -0.12712E+02  2443   0.206E+01    0.173E+02
RMM:  10    -0.137626924202E+04    0.12744E+03   -0.10112E+02  2267   0.210E+01    0.138E+02
RMM:  11    -0.130692779356E+04    0.69341E+02   -0.66961E+01  2242   0.182E+01    0.107E+02
RMM:  12    -0.135630432592E+04   -0.49377E+02   -0.91101E+01  2166   0.227E+01    0.128E+02
RMM:  13    -0.134131444953E+04    0.14990E+02   -0.59612E+01  2308   0.160E+01    0.123E+02
RMM:  14    -0.126871966717E+04    0.72595E+02   -0.34924E+01  2177   0.140E+01    0.700E+01
RMM:  15    -0.127417224584E+04   -0.54526E+01   -0.13064E+01  2331   0.726E+00    0.910E+01
RMM:  16    -0.127174206959E+04    0.24302E+01   -0.15911E+01  2336   0.754E+00    0.867E+01
RMM:  17    -0.125088793261E+04    0.20854E+02   -0.79202E+00  2324   0.572E+00    0.520E+01
RMM:  18    -0.126282322669E+04   -0.11935E+02   -0.10946E+01  2257   0.667E+00    0.706E+01
RMM:  19    -0.125456292021E+04    0.82603E+01   -0.57733E+00  2280   0.483E+00    0.433E+01
RMM:  20    -0.125156124243E+04    0.30017E+01   -0.20542E+00  2243   0.302E+00    0.331E+01
RMM:  21    -0.125242769119E+04   -0.86645E+00   -0.10703E+00  2308   0.203E+00    0.297E+01
RMM:  22    -0.125327289067E+04   -0.84520E+00   -0.83661E-01  2242   0.186E+00    0.280E+01
RMM:  23    -0.125477645613E+04   -0.15036E+01   -0.83499E-01  2251   0.176E+00    0.309E+01
RMM:  24    -0.125525992365E+04   -0.48347E+00   -0.53747E-01  2262   0.142E+00    0.259E+01
RMM:  25    -0.125587935822E+04   -0.61943E+00   -0.42949E-01  2228   0.132E+00    0.240E+01
RMM:  26    -0.125656969687E+04   -0.69034E+00   -0.31660E-01  2330   0.104E+00    0.277E+01
RMM:  27    -0.125704466330E+04   -0.47497E+00   -0.41845E-01  2230   0.123E+00    0.224E+01
RMM:  28    -0.126057094698E+04   -0.35263E+01   -0.11552E+00  2176   0.201E+00    0.305E+01
RMM:  29    -0.126144209625E+04   -0.87115E+00   -0.11006E+00  2371   0.198E+00    0.270E+01
RMM:  30    -0.126216792369E+04   -0.72583E+00   -0.46436E-01  2311   0.133E+00    0.209E+01
RMM:  31    -0.126241085108E+04   -0.24293E+00   -0.10624E-01  2489   0.628E-01    0.219E+01
RMM:  32    -0.126243130350E+04   -0.20452E-01   -0.26770E-02  2530   0.265E-01    0.217E+01
RMM:  33    -0.126239873270E+04    0.32571E-01   -0.54138E-03  2624   0.116E-01    0.219E+01
RMM:  34    -0.126339209015E+04   -0.99336E+00   -0.15900E-01  2215   0.752E-01    0.220E+01
RMM:  35    -0.126557480464E+04   -0.21827E+01   -0.71240E-01  2208   0.159E+00    0.220E+01
RMM:  36    -0.126731641308E+04   -0.17416E+01   -0.66579E-01  2227   0.156E+00    0.215E+01
RMM:  37    -0.126780539033E+04   -0.48898E+00   -0.15362E-01  2453   0.730E-01    0.235E+01
RMM:  38    -0.126777846753E+04    0.26923E-01   -0.36866E-02  2649   0.303E-01    0.236E+01
RMM:  39    -0.126768599766E+04    0.92470E-01   -0.10432E-02  2377   0.175E-01    0.231E+01
RMM:  40    -0.126769706039E+04   -0.11063E-01   -0.89078E-03  2379   0.168E-01    0.230E+01
RMM:  41    -0.126771295989E+04   -0.15900E-01   -0.91744E-03  2265   0.184E-01    0.223E+01
RMM:  42    -0.126777647477E+04   -0.63515E-01   -0.49885E-03  2302   0.141E-01    0.225E+01
RMM:  43    -0.126810786937E+04   -0.33139E+00   -0.51880E-02  2190   0.416E-01    0.237E+01
RMM:  44    -0.126797770794E+04    0.13016E+00   -0.13426E-01  2214   0.681E-01    0.174E+01
RMM:  45    -0.126925870310E+04   -0.12810E+01   -0.27505E-01  2248   0.927E-01    0.168E+01
RMM:  46    -0.126968250122E+04   -0.42380E+00   -0.16104E-01  2553   0.659E-01    0.157E+01
RMM:  47    -0.127032763298E+04   -0.64513E+00   -0.25012E-01  2241   0.802E-01    0.169E+01
RMM:  48    -0.127075342635E+04   -0.42579E+00   -0.17837E-01  2368   0.726E-01    0.175E+01
RMM:  49    -0.127053122100E+04    0.22221E+00   -0.73563E-02  2782   0.394E-01    0.175E+01
RMM:  50    -0.127023600689E+04    0.29521E+00   -0.55408E-02  2404   0.353E-01    0.176E+01
RMM:  51    -0.127112422887E+04   -0.88822E+00   -0.69519E-01  2179   0.148E+00    0.215E+01
RMM:  52    -0.127115521696E+04   -0.30988E-01   -0.14067E-01  2226   0.784E-01    0.215E+01
RMM:  53    -0.127087912149E+04    0.27610E+00   -0.49214E-02  2531   0.389E-01    0.210E+01
RMM:  54    -0.127087911636E+04    0.51282E-05   -0.71192E-03  2485   0.140E-01    0.210E+01
RMM:  55    -0.127101307229E+04   -0.13396E+00   -0.20831E-02  2203   0.285E-01    0.212E+01
RMM:  56    -0.127039278591E+04    0.62029E+00   -0.20237E-01  2217   0.848E-01    0.221E+01
RMM:  57    -0.127045873886E+04   -0.65953E-01   -0.33270E-02  2307   0.368E-01    0.219E+01
RMM:  58    -0.127039840243E+04    0.60336E-01   -0.96589E-03  2700   0.166E-01    0.219E+01
RMM:  59    -0.127044931041E+04   -0.50908E-01   -0.37858E-03  2357   0.103E-01    0.218E+01
RMM:  60    -0.127074406137E+04   -0.29475E+00   -0.25887E-02  2221   0.296E-01    0.237E+01
RMM:  61    -0.127111272128E+04   -0.36866E+00   -0.38109E-01  2224   0.119E+00    0.250E+01
RMM:  62    -0.127126379152E+04   -0.15107E+00   -0.22762E-01  2215   0.103E+00    0.230E+01
RMM:  63    -0.127180450282E+04   -0.54071E+00   -0.16339E-01  2327   0.798E-01    0.208E+01
RMM:  64    -0.127203608470E+04   -0.23158E+00   -0.54110E-02  2294   0.460E-01    0.207E+01
RMM:  65    -0.127237739851E+04   -0.34131E+00   -0.86255E-02  2235   0.508E-01    0.225E+01
RMM:  66    -0.127446426663E+04   -0.20869E+01   -0.11091E+00  2295   0.188E+00    0.360E+01
RMM:  67    -0.127347660695E+04    0.98766E+00   -0.68903E-01  2277   0.158E+00    0.245E+01
RMM:  68    -0.127355651102E+04   -0.79904E-01   -0.20108E-01  2240   0.942E-01    0.218E+01
RMM:  69    -0.127394285801E+04   -0.38635E+00   -0.14216E-01  2465   0.651E-01    0.216E+01
RMM:  70    -0.127403027564E+04   -0.87418E-01   -0.64562E-02  2396   0.459E-01    0.201E+01
RMM:  71    -0.127627818451E+04   -0.22479E+01   -0.79591E-01  2258   0.167E+00    0.339E+01
RMM:  72    -0.127568433295E+04    0.59385E+00   -0.27437E-01  2373   0.109E+00    0.280E+01
RMM:  73    -0.127615671730E+04   -0.47238E+00   -0.84915E-02  2434   0.612E-01    0.280E+01
RMM:  74    -0.127648612706E+04   -0.32941E+00   -0.87936E-02  2337   0.527E-01    0.277E+01
RMM:  75    -0.127664009496E+04   -0.15397E+00   -0.18850E-01  2346   0.741E-01    0.233E+01
RMM:  76    -0.127748632903E+04   -0.84623E+00   -0.34214E-01  2258   0.115E+00    0.294E+01
RMM:  77    -0.127746235301E+04    0.23976E-01   -0.86431E-02  2322   0.638E-01    0.283E+01
RMM:  78    -0.127732020701E+04    0.14215E+00   -0.62355E-02  2284   0.481E-01    0.264E+01
RMM:  79    -0.127785838860E+04   -0.53818E+00   -0.20348E-01  2234   0.840E-01    0.241E+01
RMM:  80    -0.127793723077E+04   -0.78842E-01   -0.13232E-01  2406   0.730E-01    0.228E+01
RMM:  81    -0.127887439907E+04   -0.93717E+00   -0.43728E-01  2274   0.110E+00    0.206E+01
RMM:  82    -0.127919281545E+04   -0.31842E+00   -0.22375E-01  2453   0.821E-01    0.202E+01
RMM:  83    -0.127950358657E+04   -0.31077E+00   -0.11908E-01  2633   0.518E-01    0.198E+01
RMM:  84    -0.127977968615E+04   -0.27610E+00   -0.50994E-02  2524   0.383E-01    0.201E+01
RMM:  85    -0.127977958416E+04    0.10199E-03   -0.16181E-02  2684   0.192E-01    0.200E+01
RMM:  86    -0.128021660746E+04   -0.43702E+00   -0.19885E+00  2238   0.253E+00    0.369E+01
RMM:  87    -0.127963971893E+04    0.57689E+00   -0.76895E-01  2253   0.179E+00    0.263E+01
RMM:  88    -0.127921475050E+04    0.42497E+00   -0.36977E-01  2244   0.125E+00    0.220E+01
RMM:  89    -0.127943612083E+04   -0.22137E+00   -0.16480E-01  2481   0.748E-01    0.203E+01
RMM:  90    -0.127967034041E+04   -0.23422E+00   -0.97395E-02  2524   0.569E-01    0.198E+01
RMM:  91    -0.127928690425E+04    0.38344E+00   -0.20701E-01  2315   0.905E-01    0.187E+01
RMM:  92    -0.127940389398E+04   -0.11699E+00   -0.65501E-02  2404   0.500E-01    0.190E+01
RMM:  93    -0.127959400983E+04   -0.19012E+00   -0.85645E-02  2285   0.597E-01    0.194E+01
RMM:  94    -0.127982823624E+04   -0.23423E+00   -0.93137E-02  2341   0.580E-01    0.170E+01
RMM:  95    -0.127995093088E+04   -0.12269E+00   -0.56135E-02  2405   0.491E-01    0.160E+01
RMM:  96    -0.127917868337E+04    0.77225E+00   -0.10831E+00  2192   0.204E+00    0.200E+01
RMM:  97    -0.127963903489E+04   -0.46035E+00   -0.47307E-01  2333   0.141E+00    0.179E+01
RMM:  98    -0.127984651941E+04   -0.20748E+00   -0.24200E-01  2359   0.101E+00    0.168E+01
RMM:  99    -0.127982909436E+04    0.17425E-01   -0.14916E-01  2539   0.712E-01    0.136E+01
RMM: 100    -0.128005433572E+04   -0.22524E+00   -0.12074E-01  2394   0.616E-01    0.135E+01
RMM: 101    -0.128020339850E+04   -0.14906E+00   -0.49057E-01  2331   0.123E+00    0.241E+01
RMM: 102    -0.127990373133E+04    0.29967E+00   -0.30292E-01  2282   0.100E+00    0.110E+01
RMM: 103    -0.127991498236E+04   -0.11251E-01   -0.10348E-01  2323   0.609E-01    0.104E+01
RMM: 104    -0.127991779052E+04   -0.28082E-02   -0.10062E-01  2264   0.670E-01    0.999E+00
RMM: 105    -0.127999073350E+04   -0.72943E-01   -0.42643E-02  2531   0.368E-01    0.108E+01
RMM: 106    -0.128070255858E+04   -0.71183E+00   -0.21264E-01  2348   0.838E-01    0.252E+01
RMM: 107    -0.128014730116E+04    0.55526E+00   -0.12284E-01  2264   0.706E-01    0.200E+01
RMM: 108    -0.127995337379E+04    0.19393E+00   -0.55127E-02  2559   0.362E-01    0.155E+01
RMM: 109    -0.127996678008E+04   -0.13406E-01   -0.48771E-02  2218   0.464E-01    0.152E+01
RMM: 110    -0.128002562338E+04   -0.58843E-01   -0.20408E-02  2289   0.322E-01    0.154E+01
RMM: 111    -0.128038696330E+04   -0.36134E+00   -0.33257E-01  2231   0.104E+00    0.218E+01
RMM: 112    -0.127996914110E+04    0.41782E+00   -0.87605E-02  2225   0.571E-01    0.146E+01
RMM: 113    -0.127994478011E+04    0.24361E-01   -0.10945E-01  2258   0.650E-01    0.134E+01
RMM: 114    -0.127989756927E+04    0.47211E-01   -0.60684E-02  2344   0.453E-01    0.116E+01
RMM: 115    -0.127993246132E+04   -0.34892E-01   -0.40866E-02  2445   0.365E-01    0.103E+01
RMM: 116    -0.127981501885E+04    0.11744E+00   -0.67042E-02  2299   0.516E-01    0.731E+00
RMM: 117    -0.127998415373E+04   -0.16913E+00   -0.75384E-02  2361   0.525E-01    0.735E+00
RMM: 118    -0.128011639908E+04   -0.13225E+00   -0.55258E-02  2273   0.469E-01    0.793E+00
RMM: 119    -0.128026486733E+04   -0.14847E+00   -0.36690E-02  2541   0.335E-01    0.767E+00
RMM: 120    -0.128035118537E+04   -0.86318E-01   -0.33780E-02  2305   0.328E-01
   1 F= -.12896507E+04 E0= -.12896309E+04  d E =-.128965E+04  mag=    31.3897
 curvature:   0.00 expect dE= 0.000E+00 dE for cont linesearch  0.000E+00
 trial: gam= 0.00000 g(F)=  0.253E+00 g(S)=  0.753E-02 ort = 0.000E+00 (trialstep = 0.100E+01)
 search vector abs. value=  0.261E+00
 bond charge predicted
       N       E                     dE             d eps       ncg     rms          rms(c)
DAV:   1    -0.128053806194E+04   -0.27319E+00   -0.90542E+01  2280   0.157E+01    0.953E+00
RMM:   2    -0.128897806807E+04   -0.84400E+01   -0.10275E+01  2290   0.687E+00    0.592E+01
RMM:   3    -0.128112182540E+04    0.78562E+01   -0.40076E+00  2308   0.460E+00    0.194E+01
RMM:   4    -0.128071714504E+04    0.40468E+00   -0.10806E+00  2421   0.207E+00    0.973E+00
RMM:   5    -0.128105706581E+04   -0.33992E+00   -0.64372E-01  2369   0.158E+00    0.168E+01
RMM:   6    -0.128062821984E+04    0.42885E+00   -0.28730E-01  2405   0.106E+00    0.643E+00
RMM:   7    -0.128062862456E+04   -0.40472E-03   -0.26497E-01  2322   0.109E+00    0.588E+00
RMM:   8    -0.128068843527E+04   -0.59811E-01   -0.12572E-01  2347   0.742E-01    0.472E+00
RMM:   9    -0.128071353215E+04   -0.25097E-01   -0.71593E-02  2318   0.584E-01    0.342E+00
RMM:  10    -0.128077302530E+04   -0.59493E-01   -0.45954E-02  2341   0.437E-01    0.311E+00
RMM:  11    -0.128082928313E+04   -0.56258E-01   -0.23238E-02  2382   0.312E-01    0.219E+00
RMM:  12    -0.128093597885E+04   -0.10670E+00   -0.24120E-02  2359   0.287E-01    0.206E+00
RMM:  13    -0.128103392220E+04   -0.97943E-01   -0.19038E-02  2341   0.261E-01    0.174E+00
RMM:  14    -0.128114320321E+04   -0.10928E+00   -0.14839E-02  2407   0.222E-01    0.138E+00
RMM:  15    -0.128126767543E+04   -0.12447E+00   -0.15426E-02  2427   0.216E-01    0.177E+00
RMM:  16    -0.128137454039E+04   -0.10686E+00   -0.12535E-02  2393   0.213E-01    0.148E+00
RMM:  17    -0.128145791257E+04   -0.83372E-01   -0.74062E-03  2490   0.147E-01    0.786E-01
RMM:  18    -0.128151702762E+04   -0.59115E-01   -0.42709E-03  2534   0.106E-01    0.987E-01
RMM:  19    -0.128155838619E+04   -0.41359E-01   -0.22732E-03  2427   0.905E-02    0.966E-01
RMM:  20    -0.128159532068E+04   -0.36934E-01   -0.15008E-03  2503   0.630E-02    0.822E-01
RMM:  21    -0.128166433208E+04   -0.69011E-01   -0.24252E-03  2388   0.718E-02    0.527E-01
RMM:  22    -0.128172412988E+04   -0.59798E-01   -0.26830E-03  2503   0.843E-02    0.417E-01
RMM:  23    -0.128176910060E+04   -0.44971E-01   -0.19019E-03  2534   0.640E-02    0.405E-01
RMM:  24    -0.128180335862E+04   -0.34258E-01   -0.13449E-03  2599   0.536E-02    0.316E-01
RMM:  25    -0.128184536465E+04   -0.42006E-01   -0.14720E-03  2508   0.489E-02    0.255E-01
RMM:  26    -0.128189098634E+04   -0.45622E-01   -0.17065E-03  2599   0.445E-02    0.269E-01
RMM:  27    -0.128191779883E+04   -0.26812E-01   -0.10903E-03  2591   0.394E-02    0.292E-01
RMM:  28    -0.128194455746E+04   -0.26759E-01   -0.12943E-03  2545   0.395E-02    0.168E-01
RMM:  29    -0.128195942954E+04   -0.14872E-01   -0.76558E-04  2611   0.313E-02    0.127E-01
RMM:  30    -0.128196964457E+04   -0.10215E-01   -0.53618E-04  2568   0.227E-02    0.144E-01
RMM:  31    -0.128198115924E+04   -0.11515E-01   -0.78835E-04  2480   0.275E-02    0.882E-02
RMM:  32    -0.128198611199E+04   -0.49527E-02   -0.44614E-04  2630   0.210E-02    0.616E-02
RMM:  33    -0.128198835080E+04   -0.22388E-02   -0.19268E-04  2513   0.136E-02    0.506E-02
RMM:  34    -0.128198960169E+04   -0.12509E-02   -0.97847E-05  2412   0.955E-03    0.433E-02
RMM:  35    -0.128199028155E+04   -0.67986E-03   -0.54934E-05  2239   0.687E-03    0.217E-02
RMM:  36    -0.128199048867E+04   -0.20712E-03   -0.16352E-05  1962   0.476E-03    0.144E-02
RMM:  37    -0.128199060074E+04   -0.11207E-03   -0.81320E-06  1774   0.307E-03    0.184E-02
RMM:  38    -0.128199068236E+04   -0.81622E-04   -0.49724E-06  1625   0.278E-03    0.806E-03
RMM:  39    -0.128199072905E+04   -0.46693E-04   -0.34200E-06  1552   0.206E-03    0.451E-03
RMM:  40    -0.128199075976E+04   -0.30705E-04   -0.20792E-06  1418   0.188E-03    0.280E-03
RMM:  41    -0.128199077948E+04   -0.19724E-04   -0.13976E-06  1342   0.145E-03    0.243E-03
RMM:  42    -0.128199079129E+04   -0.11802E-04   -0.84689E-07  1213   0.123E-03    0.158E-03
RMM:  43    -0.128199080305E+04   -0.11769E-04   -0.77682E-07  1198   0.107E-03    0.165E-03
RMM:  44    -0.128199081391E+04   -0.10861E-04   -0.72971E-07  1203   0.104E-03    0.628E-04
RMM:  45    -0.128199082387E+04   -0.99519E-05   -0.77751E-07  1160   0.981E-04    0.566E-04
RMM:  46    -0.128199083101E+04   -0.71418E-05   -0.69451E-07  1152   0.993E-04    0.520E-04
RMM:  47    -0.128199083313E+04   -0.21186E-05   -0.44193E-07  1030   0.840E-04    0.363E-04
RMM:  48    -0.128199083629E+04   -0.31614E-05   -0.41189E-07  1055   0.744E-04    0.264E-04
RMM:  49    -0.128199083765E+04   -0.13657E-05   -0.29275E-07   999   0.725E-04    0.259E-04
RMM:  50    -0.128199083842E+04   -0.76448E-06   -0.22107E-07   929   0.575E-04
   2 F= -.12913003E+04 E0= -.12912872E+04  d E =-.164959E+01  mag=    31.9751
 trial-energy change:   -1.649588  1 .order   -0.070548   -0.260676    0.119580
 step:   0.9877(harm=  0.6855)  dis= 0.02196  next Energy= -1291.300991 (dE=-0.165E+01)
 bond charge predicted
       N       E                     dE             d eps       ncg     rms          rms(c)
DAV:   1    -0.128199237450E+04   -0.15368E-02   -0.13610E-02  2268   0.187E-01    0.503E-02
RMM:   2    -0.128199241768E+04   -0.43173E-04   -0.24914E-04  2405   0.315E-02    0.146E-01
RMM:   3    -0.128199241517E+04    0.25075E-05   -0.78455E-05  2287   0.178E-02    0.193E-01
RMM:   4    -0.128199241416E+04    0.10108E-05   -0.61605E-05  2039   0.166E-02    0.161E-01
RMM:   5    -0.128199237560E+04    0.38554E-04   -0.29619E-05  1810   0.125E-02    0.448E-02
RMM:   6    -0.128199239466E+04   -0.19060E-04   -0.99596E-06  1590   0.700E-03    0.272E-02
RMM:   7    -0.128199240336E+04   -0.86975E-05   -0.48839E-06  1550   0.460E-03    0.217E-02
RMM:   8    -0.128199240450E+04   -0.11398E-05   -0.34594E-06  1471   0.446E-03    0.206E-02
RMM:   9    -0.128199240486E+04   -0.36335E-06   -0.18807E-06  1394   0.325E-03
   3 F= -.12913017E+04 E0= -.12912886E+04  d E =-.165103E+01  mag=    31.9747
 curvature:  -0.03 expect dE=-0.189E-01 dE for cont linesearch -0.134E-02
 ZBRENT: interpolating
 opt :   0.6845  next Energy= -1291.319213 (dE=-0.167E+01)
 bond charge predicted
       N       E                     dE             d eps       ncg     rms          rms(c)
DAV:   1    -0.128199317148E+04   -0.76697E-03   -0.83035E+00  2208   0.462E+00    0.136E+00
RMM:   2    -0.128208926678E+04   -0.96095E-01   -0.17812E-01  2461   0.812E-01    0.757E+00
RMM:   3    -0.128199424021E+04    0.95027E-01   -0.49301E-02  2558   0.438E-01    0.250E+00
RMM:   4    -0.128206259842E+04   -0.68358E-01   -0.44223E-02  2469   0.419E-01    0.766E+00
RMM:   5    -0.128199796994E+04    0.64628E-01   -0.34108E-02  2323   0.418E-01    0.253E+00
RMM:   6    -0.128200715419E+04   -0.91843E-02   -0.91551E-03  2305   0.227E-01    0.129E+00
RMM:   7    -0.128201178967E+04   -0.46355E-02   -0.15355E-03  2473   0.846E-02    0.124E+00
RMM:   8    -0.128201660400E+04   -0.48143E-02   -0.51584E-03  2387   0.137E-01    0.275E+00
RMM:   9    -0.128201497592E+04    0.16281E-02   -0.32823E-03  2458   0.119E-01    0.425E+00
RMM:  10    -0.128200822824E+04    0.67477E-02   -0.35365E-03  2226   0.122E-01    0.376E+00
RMM:  11    -0.128200713810E+04    0.10901E-02   -0.82201E-04  2331   0.575E-02    0.361E+00
RMM:  12    -0.128201009524E+04   -0.29571E-02   -0.19038E-03  2227   0.777E-02    0.488E+00
RMM:  13    -0.128200738491E+04    0.27103E-02   -0.41168E-03  2292   0.125E-01    0.430E+00
RMM:  14    -0.128200344028E+04    0.39446E-02   -0.31048E-03  2434   0.105E-01    0.320E+00
RMM:  15    -0.128200461988E+04   -0.11796E-02   -0.34796E-03  2441   0.114E-01    0.157E+00
RMM:  16    -0.128200935083E+04   -0.47310E-02   -0.34064E-03  2391   0.124E-01    0.769E-01
RMM:  17    -0.128201097899E+04   -0.16282E-02   -0.17225E-03  2497   0.842E-02    0.573E-01
RMM:  18    -0.128201084856E+04    0.13043E-03   -0.10033E-03  2479   0.595E-02    0.567E-01
RMM:  19    -0.128200870884E+04    0.21397E-02   -0.86339E-04  2551   0.435E-02    0.684E-01
RMM:  20    -0.128200663061E+04    0.20782E-02   -0.51384E-04  2570   0.302E-02    0.808E-01
RMM:  21    -0.128200817368E+04   -0.15431E-02   -0.14790E-04  2102   0.247E-02    0.753E-01
RMM:  22    -0.128200976073E+04   -0.15870E-02   -0.19821E-04  2265   0.232E-02    0.646E-01
RMM:  23    -0.128200989107E+04   -0.13034E-03   -0.26321E-05  1969   0.709E-03    0.639E-01
RMM:  24    -0.128201237881E+04   -0.24877E-02   -0.11139E-03  2327   0.509E-02    0.499E-01
RMM:  25    -0.128201322888E+04   -0.85008E-03   -0.10480E-03  2494   0.474E-02    0.465E-01
RMM:  26    -0.128201296251E+04    0.26637E-03   -0.12662E-03  2511   0.503E-02    0.688E-01
RMM:  27    -0.128201294940E+04    0.13115E-04   -0.56606E-04  2499   0.307E-02    0.817E-01
RMM:  28    -0.128201291486E+04    0.34540E-04   -0.20387E-04  2492   0.190E-02    0.967E-01
RMM:  29    -0.128201264197E+04    0.27288E-03   -0.16668E-04  2062   0.254E-02    0.746E-01
RMM:  30    -0.128201299154E+04   -0.34957E-03   -0.17947E-04  2257   0.229E-02    0.689E-01
RMM:  31    -0.128201341664E+04   -0.42510E-03   -0.21090E-04  2380   0.204E-02    0.609E-01
RMM:  32    -0.128201370238E+04   -0.28573E-03   -0.29819E-04  2403   0.244E-02    0.501E-01
RMM:  33    -0.128201392123E+04   -0.21885E-03   -0.30860E-04  2489   0.234E-02    0.433E-01
RMM:  34    -0.128201396555E+04   -0.44326E-04   -0.20612E-04  2535   0.176E-02    0.387E-01
RMM:  35    -0.128201392082E+04    0.44729E-04   -0.91964E-05  2385   0.126E-02    0.384E-01
RMM:  36    -0.128201393378E+04   -0.12962E-04   -0.27193E-05  1822   0.743E-03    0.386E-01
RMM:  37    -0.128201381217E+04    0.12161E-03   -0.16694E-05  1851   0.590E-03    0.389E-01
RMM:  38    -0.128201347457E+04    0.33760E-03   -0.40549E-05  2194   0.915E-03    0.408E-01
RMM:  39    -0.128201332206E+04    0.15251E-03   -0.17088E-05  1825   0.591E-03    0.419E-01
RMM:  40    -0.128201331250E+04    0.95571E-05   -0.26783E-06  1366   0.303E-03    0.419E-01
RMM:  41    -0.128201330763E+04    0.48734E-05   -0.11379E-06  1299   0.191E-03    0.419E-01
RMM:  42    -0.128201330065E+04    0.69807E-05   -0.41327E-07  1246   0.138E-03    0.419E-01
RMM:  43    -0.128201330945E+04   -0.88061E-05   -0.23563E-07  1196   0.966E-04    0.419E-01
RMM:  44    -0.128201330041E+04    0.90398E-05   -0.22022E-07  1152   0.809E-04    0.420E-01
RMM:  45    -0.128201331268E+04   -0.12267E-04   -0.30597E-07  1160   0.122E-03    0.417E-01
RMM:  46    -0.128201337306E+04   -0.60383E-04   -0.65232E-06  1455   0.436E-03    0.403E-01
RMM:  47    -0.128201352859E+04   -0.15552E-03   -0.69675E-05  2016   0.127E-02    0.367E-01
RMM:  48    -0.128201351727E+04    0.11315E-04   -0.10896E-04  2074   0.171E-02    0.362E-01
RMM:  49    -0.128201364338E+04   -0.12611E-03   -0.75145E-05  2259   0.137E-02    0.368E-01
RMM:  50    -0.128201374055E+04   -0.97170E-04   -0.23586E-05  1894   0.789E-03    0.365E-01
RMM:  51    -0.128201379635E+04   -0.55801E-04   -0.53182E-06  1454   0.420E-03    0.365E-01
RMM:  52    -0.128201356374E+04    0.23261E-03   -0.15461E-05  1897   0.616E-03    0.388E-01
RMM:  53    -0.128201366614E+04   -0.10239E-03   -0.25261E-06  1361   0.370E-03    0.392E-01
RMM:  54    -0.128201362874E+04    0.37396E-04   -0.18749E-06  1296   0.303E-03    0.382E-01
RMM:  55    -0.128201349307E+04    0.13567E-03   -0.74744E-05  2036   0.142E-02    0.352E-01
RMM:  56    -0.128201301916E+04    0.47391E-03   -0.11540E-04  2122   0.183E-02    0.349E-01
RMM:  57    -0.128201253043E+04    0.48873E-03   -0.76946E-05  2234   0.141E-02    0.356E-01
RMM:  58    -0.128201284623E+04   -0.31581E-03   -0.14837E-05  1665   0.790E-03    0.350E-01
RMM:  59    -0.128201294605E+04   -0.99816E-04   -0.51492E-06  1411   0.435E-03    0.349E-01
RMM:  60    -0.128201294576E+04    0.29267E-06   -0.16681E-06  1264   0.268E-03
   4 F= -.12913192E+04 E0= -.12913044E+04  d E =-.166850E+01  mag=    31.9821
 curvature:  -0.34 expect dE=-0.120E+00 dE for cont linesearch -0.238E-03
 trial: gam= 1.39379 g(F)=  0.342E+00 g(S)=  0.803E-02 ort =-0.135E-01 (trialstep = 0.298E+00)
 search vector abs. value=  0.819E+00
 bond charge predicted
       N       E                     dE             d eps       ncg     rms          rms(c)
DAV:   1    -0.128201016812E+04    0.27779E-02   -0.25378E+01  2172   0.725E+00    0.203E+00
RMM:   2    -0.128213811904E+04   -0.12795E+00   -0.51983E-01  2445   0.131E+00    0.853E+00
RMM:   3    -0.128207173677E+04    0.66382E-01   -0.11698E-01  2578   0.628E-01    0.282E+00
RMM:   4    -0.128215391584E+04   -0.82179E-01   -0.74223E-02  2500   0.521E-01    0.867E+00
RMM:   5    -0.128205144935E+04    0.10247E+00   -0.53170E-02  2372   0.488E-01    0.216E+00
RMM:   6    -0.128208114327E+04   -0.29694E-01   -0.31470E-02  2292   0.407E-01    0.169E+00
RMM:   7    -0.128208133982E+04   -0.19655E-03   -0.83189E-03  2440   0.203E-01    0.153E+00
RMM:   8    -0.128207989809E+04    0.14417E-02   -0.51417E-03  2400   0.150E-01    0.128E+00
RMM:   9    -0.128207953555E+04    0.36254E-03   -0.42560E-03  2473   0.129E-01    0.815E-01
RMM:  10    -0.128207903158E+04    0.50397E-03   -0.27825E-03  2419   0.112E-01    0.541E-01
RMM:  11    -0.128207967398E+04   -0.64240E-03   -0.11136E-03  2423   0.694E-02    0.623E-01
RMM:  12    -0.128207950959E+04    0.16439E-03   -0.54664E-04  2431   0.469E-02    0.544E-01
RMM:  13    -0.128207943370E+04    0.75890E-04   -0.46296E-04  2376   0.427E-02    0.344E-01
RMM:  14    -0.128207941834E+04    0.15357E-04   -0.23172E-04  2302   0.312E-02    0.203E-01
RMM:  15    -0.128207958511E+04   -0.16676E-03   -0.86403E-05  2230   0.187E-02    0.207E-01
RMM:  16    -0.128207960933E+04   -0.24229E-04   -0.42348E-05  2047   0.127E-02    0.194E-01
RMM:  17    -0.128207960933E+04    0.42637E-08   -0.29987E-05  1858   0.108E-02    0.163E-01
RMM:  18    -0.128207962870E+04   -0.19371E-04   -0.22754E-05  1903   0.901E-03    0.115E-01
RMM:  19    -0.128207966844E+04   -0.39742E-04   -0.19218E-05  1991   0.720E-03    0.958E-02
RMM:  20    -0.128207967276E+04   -0.43138E-05   -0.10771E-05  1610   0.643E-03    0.794E-02
RMM:  21    -0.128207968160E+04   -0.88413E-05   -0.67228E-06  1570   0.517E-03    0.526E-02
RMM:  22    -0.128207969755E+04   -0.15950E-04   -0.45121E-06  1525   0.434E-03    0.460E-02
RMM:  23    -0.128207971591E+04   -0.18365E-04   -0.45867E-06  1509   0.411E-03    0.398E-02
RMM:  24    -0.128207974858E+04   -0.32671E-04   -0.44041E-06  1556   0.421E-03    0.217E-02
RMM:  25    -0.128207977845E+04   -0.29870E-04   -0.31719E-06  1448   0.347E-03    0.132E-02
RMM:  26    -0.128207979475E+04   -0.16290E-04   -0.18214E-06  1357   0.282E-03    0.966E-03
RMM:  27    -0.128207981553E+04   -0.20780E-04   -0.12775E-06  1293   0.216E-03    0.944E-03
RMM:  28    -0.128207983390E+04   -0.18379E-04   -0.11184E-06  1289   0.207E-03    0.649E-03
RMM:  29    -0.128207986111E+04   -0.27202E-04   -0.10502E-06  1280   0.170E-03    0.480E-03
RMM:  30    -0.128207987976E+04   -0.18650E-04   -0.75151E-07  1204   0.154E-03    0.432E-03
RMM:  31    -0.128207989535E+04   -0.15589E-04   -0.57745E-07  1156   0.111E-03    0.346E-03
RMM:  32    -0.128207991316E+04   -0.17813E-04   -0.59469E-07  1155   0.102E-03    0.245E-03
RMM:  33    -0.128207992769E+04   -0.14525E-04   -0.56397E-07  1125   0.944E-04    0.168E-03
RMM:  34    -0.128207994276E+04   -0.15074E-04   -0.68297E-07  1157   0.944E-04    0.113E-03
RMM:  35    -0.128207995190E+04   -0.91437E-05   -0.57360E-07  1105   0.924E-04    0.966E-04
RMM:  36    -0.128207995850E+04   -0.66018E-05   -0.49239E-07  1067   0.848E-04    0.903E-04
RMM:  37    -0.128207996516E+04   -0.66506E-05   -0.53652E-07  1124   0.853E-04    0.586E-04
RMM:  38    -0.128207996851E+04   -0.33526E-05   -0.45072E-07  1070   0.827E-04    0.476E-04
RMM:  39    -0.128207997009E+04   -0.15815E-05   -0.36102E-07  1006   0.726E-04    0.342E-04
RMM:  40    -0.128207997074E+04   -0.65246E-06   -0.25474E-07   966   0.656E-04
   5 F= -.12913948E+04 E0= -.12913825E+04  d E =-.756102E-01  mag=    31.9861
 trial-energy change:   -0.075610  1 .order   -0.073124   -0.098766   -0.047483
 step:   0.4857(harm=  0.5745)  dis= 0.02287  next Energy= -1291.410321 (dE=-0.911E-01)
 bond charge predicted
       N       E                     dE             d eps       ncg     rms          rms(c)
DAV:   1    -0.128206865561E+04    0.11314E-01   -0.10013E+01  2184   0.453E+00    0.124E+00
RMM:   2    -0.128209555790E+04   -0.26902E-01   -0.16571E-01  2445   0.765E-01    0.271E+00
RMM:   3    -0.128210753575E+04   -0.11978E-01   -0.48610E-02  2564   0.409E-01    0.259E+00
RMM:   4    -0.128210660383E+04    0.93192E-03   -0.23166E-02  2544   0.298E-01    0.345E+00
RMM:   5    -0.128208758996E+04    0.19014E-01   -0.14462E-02  2413   0.253E-01    0.917E-01
RMM:   6    -0.128209418627E+04   -0.65963E-02   -0.67563E-03  2358   0.174E-01    0.107E+00
RMM:   7    -0.128209228695E+04    0.18993E-02   -0.22605E-03  2474   0.100E-01    0.626E-01
RMM:   8    -0.128209361354E+04   -0.13266E-02   -0.21968E-03  2453   0.891E-02    0.678E-01
RMM:   9    -0.128209285632E+04    0.75722E-03   -0.12945E-03  2481   0.757E-02    0.428E-01
RMM:  10    -0.128209298336E+04   -0.12704E-03   -0.76451E-04  2394   0.569E-02    0.399E-01
RMM:  11    -0.128209281452E+04    0.16883E-03   -0.35511E-04  2417   0.385E-02    0.200E-01
RMM:  12    -0.128209289531E+04   -0.80784E-04   -0.23267E-04  2304   0.327E-02    0.139E-01
RMM:  13    -0.128209292685E+04   -0.31547E-04   -0.96002E-05  2179   0.211E-02    0.800E-02
RMM:  14    -0.128209296676E+04   -0.39903E-04   -0.49595E-05  2020   0.140E-02    0.889E-02
RMM:  15    -0.128209297542E+04   -0.86586E-05   -0.26772E-05  1833   0.108E-02    0.441E-02
RMM:  16    -0.128209299211E+04   -0.16694E-04   -0.10411E-05  1598   0.705E-03    0.261E-02
RMM:  17    -0.128209301190E+04   -0.19787E-04   -0.64306E-06  1539   0.519E-03    0.331E-02
RMM:  18    -0.128209302696E+04   -0.15067E-04   -0.57328E-06  1525   0.509E-03    0.237E-02
RMM:  19    -0.128209304535E+04   -0.18385E-04   -0.39936E-06  1490   0.421E-03    0.152E-02
RMM:  20    -0.128209305863E+04   -0.13287E-04   -0.25290E-06  1378   0.325E-03    0.109E-02
RMM:  21    -0.128209306734E+04   -0.87084E-05   -0.12830E-06  1340   0.248E-03    0.942E-03
RMM:  22    -0.128209307673E+04   -0.93877E-05   -0.91974E-07  1274   0.203E-03    0.956E-03
RMM:  23    -0.128209308875E+04   -0.12019E-04   -0.70787E-07  1238   0.179E-03    0.486E-03
RMM:  24    -0.128209310532E+04   -0.16564E-04   -0.54750E-07  1209   0.131E-03    0.406E-03
RMM:  25    -0.128209311435E+04   -0.90396E-05   -0.44949E-07  1168   0.130E-03    0.415E-03
RMM:  26    -0.128209312133E+04   -0.69787E-05   -0.31247E-07  1108   0.984E-04    0.250E-03
RMM:  27    -0.128209313047E+04   -0.91335E-05   -0.26446E-07  1091   0.817E-04    0.175E-03
RMM:  28    -0.128209313923E+04   -0.87642E-05   -0.25562E-07  1075   0.768E-04    0.145E-03
RMM:  29    -0.128209314737E+04   -0.81427E-05   -0.25584E-07  1087   0.741E-04    0.118E-03
RMM:  30    -0.128209315410E+04   -0.67295E-05   -0.24087E-07  1045   0.692E-04    0.112E-03
RMM:  31    -0.128209316078E+04   -0.66772E-05   -0.25439E-07  1065   0.659E-04    0.679E-04
RMM:  32    -0.128209316640E+04   -0.56179E-05   -0.24849E-07  1060   0.647E-04    0.542E-04
RMM:  33    -0.128209317132E+04   -0.49202E-05   -0.25286E-07  1049   0.634E-04    0.478E-04
RMM:  34    -0.128209317535E+04   -0.40364E-05   -0.25454E-07  1049   0.640E-04    0.396E-04
RMM:  35    -0.128209317776E+04   -0.24068E-05   -0.22211E-07  1020   0.605E-04    0.271E-04
RMM:  36    -0.128209317895E+04   -0.11860E-05   -0.16851E-07   936   0.545E-04    0.213E-04
RMM:  37    -0.128209317994E+04   -0.99544E-06   -0.13996E-07   906   0.491E-04
   6 F= -.12914134E+04 E0= -.12914017E+04  d E =-.942706E-01  mag=    31.9903
 curvature:  -0.64 expect dE=-0.950E-01 dE for cont linesearch -0.120E-02
 ZBRENT: extrapolating
 opt :   0.5471  next Energy= -1291.414653 (dE=-0.955E-01)
 bond charge predicted
       N       E                     dE             d eps       ncg     rms          rms(c)
DAV:   1    -0.128209016688E+04    0.30121E-02   -0.10754E+00  2280   0.148E+00    0.394E-01
RMM:   2    -0.128209199603E+04   -0.18292E-02   -0.14689E-02  2444   0.240E-01    0.526E-01
RMM:   3    -0.128209606324E+04   -0.40672E-02   -0.49376E-03  2541   0.137E-01    0.150E+00
RMM:   4    -0.128209221095E+04    0.38523E-02   -0.27069E-03  2537   0.106E-01    0.643E-01
RMM:   5    -0.128209217672E+04    0.34231E-04   -0.13501E-03  2363   0.819E-02    0.194E-01
RMM:   6    -0.128209254466E+04   -0.36794E-03   -0.56347E-04  2385   0.450E-02    0.244E-01
RMM:   7    -0.128209246193E+04    0.82734E-04   -0.27278E-04  2479   0.339E-02    0.149E-01
RMM:   8    -0.128209251709E+04   -0.55164E-04   -0.19353E-04  2350   0.286E-02    0.148E-01
RMM:   9    -0.128209250807E+04    0.90189E-05   -0.10484E-04  2192   0.209E-02    0.102E-01
RMM:  10    -0.128209249697E+04    0.11097E-04   -0.49552E-05  1991   0.151E-02    0.466E-02
RMM:  11    -0.128209250764E+04   -0.10669E-04   -0.20396E-05  1717   0.886E-03    0.554E-02
RMM:  12    -0.128209250471E+04    0.29341E-05   -0.91514E-06  1565   0.686E-03    0.194E-02
RMM:  13    -0.128209251276E+04   -0.80494E-05   -0.57362E-06  1540   0.524E-03    0.273E-02
RMM:  14    -0.128209251413E+04   -0.13752E-05   -0.29574E-06  1449   0.396E-03    0.150E-02
RMM:  15    -0.128209251599E+04   -0.18542E-05   -0.13076E-06  1387   0.275E-03    0.811E-03
RMM:  16    -0.128209251761E+04   -0.16265E-05   -0.48263E-07  1255   0.168E-03    0.687E-03
RMM:  17    -0.128209251889E+04   -0.12752E-05   -0.40973E-07  1210   0.150E-03    0.760E-03
RMM:  18    -0.128209252155E+04   -0.26584E-05   -0.40878E-07  1185   0.143E-03    0.661E-03
RMM:  19    -0.128209252396E+04   -0.24170E-05   -0.32677E-07  1138   0.137E-03    0.286E-03
RMM:  20    -0.128209252642E+04   -0.24599E-05   -0.13694E-07  1109   0.779E-04    0.216E-03
RMM:  21    -0.128209252782E+04   -0.13911E-05   -0.98931E-08  1041   0.702E-04    0.274E-03
RMM:  22    -0.128209252904E+04   -0.12234E-05   -0.66881E-08   899   0.570E-04    0.154E-03
RMM:  23    -0.128209253073E+04   -0.16926E-05   -0.47015E-08   870   0.454E-04    0.920E-04
RMM:  24    -0.128209253237E+04   -0.16405E-05   -0.47815E-08   875   0.446E-04    0.129E-03
RMM:  25    -0.128209253329E+04   -0.91736E-06   -0.37980E-08   824   0.435E-04
   7 F= -.12914146E+04 E0= -.12914030E+04  d E =-.954191E-01  mag=    31.9909
 curvature:  -0.64 expect dE=-0.109E+00 dE for cont linesearch -0.151E-05
 trial: gam= 0.34186 g(F)=  0.169E+00 g(S)=  0.160E-02 ort =-0.139E-02 (trialstep = 0.348E+00)
 search vector abs. value=  0.266E+00
 bond charge predicted
       N       E                     dE             d eps       ncg     rms          rms(c)
DAV:   1    -0.128210385378E+04   -0.11321E-01   -0.92849E+00  2160   0.513E+00    0.112E+00
RMM:   2    -0.128212381236E+04   -0.19959E-01   -0.19333E-01  2608   0.831E-01    0.105E+00
RMM:   3    -0.128214880556E+04   -0.24993E-01   -0.41683E-02  2545   0.407E-01    0.276E+00
RMM:   4    -0.128212734733E+04    0.21458E-01   -0.16406E-02  2647   0.258E-01    0.131E+00
RMM:   5    -0.128212625419E+04    0.10931E-02   -0.61645E-03  2516   0.161E-01    0.712E-01
RMM:   6    -0.128212701628E+04   -0.76210E-03   -0.28986E-03  2480   0.104E-01    0.511E-01
RMM:   7    -0.128212724541E+04   -0.22913E-03   -0.21214E-03  2465   0.954E-02    0.539E-01
RMM:   8    -0.128212748321E+04   -0.23780E-03   -0.17841E-03  2460   0.864E-02    0.506E-01
RMM:   9    -0.128212678523E+04    0.69798E-03   -0.96600E-04  2396   0.655E-02    0.224E-01
RMM:  10    -0.128212698136E+04   -0.19612E-03   -0.46887E-04  2403   0.454E-02    0.208E-01
RMM:  11    -0.128212689154E+04    0.89819E-04   -0.17946E-04  2301   0.277E-02    0.128E-01
RMM:  12    -0.128212690901E+04   -0.17468E-04   -0.93592E-05  2128   0.201E-02    0.880E-02
RMM:  13    -0.128212693914E+04   -0.30131E-04   -0.39784E-05  2002   0.135E-02    0.697E-02
RMM:  14    -0.128212695342E+04   -0.14289E-04   -0.23614E-05  1748   0.102E-02    0.538E-02
RMM:  15    -0.128212696367E+04   -0.10242E-04   -0.11004E-05  1584   0.724E-03    0.331E-02
RMM:  16    -0.128212697422E+04   -0.10558E-04   -0.52843E-06  1529   0.518E-03    0.245E-02
RMM:  17    -0.128212698552E+04   -0.11294E-04   -0.42507E-06  1500   0.431E-03    0.285E-02
RMM:  18    -0.128212700231E+04   -0.16796E-04   -0.37591E-06  1494   0.415E-03    0.230E-02
RMM:  19    -0.128212702064E+04   -0.18326E-04   -0.24133E-06  1442   0.345E-03    0.103E-02
RMM:  20    -0.128212703379E+04   -0.13147E-04   -0.14326E-06  1360   0.264E-03    0.114E-02
RMM:  21    -0.128212704136E+04   -0.75757E-05   -0.87519E-07  1304   0.211E-03    0.105E-02
RMM:  22    -0.128212704957E+04   -0.82122E-05   -0.59407E-07  1248   0.164E-03    0.522E-03
RMM:  23    -0.128212706051E+04   -0.10932E-04   -0.45317E-07  1186   0.133E-03    0.551E-03
RMM:  24    -0.128212707256E+04   -0.12059E-04   -0.42410E-07  1217   0.108E-03    0.283E-03
RMM:  25    -0.128212708150E+04   -0.89383E-05   -0.38511E-07  1174   0.109E-03    0.362E-03
RMM:  26    -0.128212708809E+04   -0.65906E-05   -0.33237E-07  1118   0.956E-04    0.363E-03
RMM:  27    -0.128212709525E+04   -0.71551E-05   -0.28147E-07  1084   0.825E-04    0.170E-03
RMM:  28    -0.128212710107E+04   -0.58200E-05   -0.24530E-07  1025   0.729E-04    0.156E-03
RMM:  29    -0.128212710691E+04   -0.58422E-05   -0.24208E-07  1044   0.697E-04    0.183E-03
RMM:  30    -0.128212711462E+04   -0.77089E-05   -0.30398E-07  1119   0.686E-04    0.637E-04
RMM:  31    -0.128212712109E+04   -0.64680E-05   -0.32179E-07  1093   0.725E-04    0.681E-04
RMM:  32    -0.128212712445E+04   -0.33574E-05   -0.27153E-07  1036   0.671E-04    0.457E-04
RMM:  33    -0.128212712744E+04   -0.29901E-05   -0.24825E-07  1003   0.619E-04    0.465E-04
RMM:  34    -0.128212712965E+04   -0.22160E-05   -0.21399E-07   990   0.594E-04    0.291E-04
RMM:  35    -0.128212713115E+04   -0.14960E-05   -0.17829E-07   951   0.540E-04    0.325E-04
RMM:  36    -0.128212713227E+04   -0.11226E-05   -0.14757E-07   932   0.508E-04    0.167E-04
RMM:  37    -0.128212713287E+04   -0.60388E-06   -0.11097E-07   873   0.460E-04
   8 F= -.12914530E+04 E0= -.12914416E+04  d E =-.383925E-01  mag=    31.9927
 trial-energy change:   -0.038393  1 .order   -0.038334   -0.059333   -0.017335
 step:   0.4917(harm=  0.4917)  dis= 0.01117  next Energy= -1291.456507 (dE=-0.419E-01)
 bond charge predicted
       N       E                     dE             d eps       ncg     rms          rms(c)
DAV:   1    -0.128212534074E+04    0.17915E-02   -0.15829E+00  2256   0.212E+00    0.453E-01
RMM:   2    -0.128212823752E+04   -0.28968E-02   -0.30900E-02  2626   0.339E-01    0.354E-01
RMM:   3    -0.128213315398E+04   -0.49165E-02   -0.60617E-03  2565   0.159E-01    0.156E+00
RMM:   4    -0.128212797664E+04    0.51773E-02   -0.27828E-03  2633   0.109E-01    0.419E-01
RMM:   5    -0.128212889241E+04   -0.91577E-03   -0.12036E-03  2407   0.777E-02    0.264E-01
RMM:   6    -0.128212907182E+04   -0.17941E-03   -0.52617E-04  2482   0.469E-02    0.208E-01
RMM:   7    -0.128212902222E+04    0.49601E-04   -0.31408E-04  2454   0.376E-02    0.180E-01
RMM:   8    -0.128212917540E+04   -0.15319E-03   -0.31600E-04  2419   0.351E-02    0.243E-01
RMM:   9    -0.128212902790E+04    0.14750E-03   -0.16435E-04  2336   0.284E-02    0.108E-01
RMM:  10    -0.128212904879E+04   -0.20890E-04   -0.58602E-05  2028   0.160E-02    0.991E-02
RMM:  11    -0.128212903762E+04    0.11174E-04   -0.22461E-05  1727   0.100E-02    0.427E-02
RMM:  12    -0.128212905500E+04   -0.17384E-04   -0.12716E-05  1618   0.788E-03    0.396E-02
RMM:  13    -0.128212906013E+04   -0.51226E-05   -0.77830E-06  1573   0.659E-03    0.352E-02
RMM:  14    -0.128212906128E+04   -0.11505E-05   -0.38180E-06  1490   0.469E-03    0.182E-02
RMM:  15    -0.128212906448E+04   -0.32071E-05   -0.18692E-06  1414   0.317E-03    0.127E-02
RMM:  16    -0.128212906649E+04   -0.20082E-05   -0.76310E-07  1295   0.212E-03    0.958E-03
RMM:  17    -0.128212906853E+04   -0.20368E-05   -0.76568E-07  1286   0.190E-03    0.128E-02
RMM:  18    -0.128212907195E+04   -0.34229E-05   -0.68222E-07  1270   0.195E-03    0.128E-02
RMM:  19    -0.128212907473E+04   -0.27823E-05   -0.36682E-07  1206   0.143E-03    0.724E-03
RMM:  20    -0.128212907772E+04   -0.29884E-05   -0.22853E-07  1151   0.107E-03    0.359E-03
RMM:  21    -0.128212907936E+04   -0.16349E-05   -0.15987E-07  1125   0.899E-04    0.429E-03
RMM:  22    -0.128212908085E+04   -0.14876E-05   -0.10281E-07  1060   0.682E-04    0.216E-03
RMM:  23    -0.128212908272E+04   -0.18705E-05   -0.81948E-08   964   0.578E-04    0.181E-03
RMM:  24    -0.128212908472E+04   -0.20042E-05   -0.68317E-08   921   0.519E-04    0.183E-03
RMM:  25    -0.128212908649E+04   -0.17675E-05   -0.61408E-08   907   0.470E-04    0.142E-03
RMM:  26    -0.128212908764E+04   -0.11554E-05   -0.51673E-08   845   0.462E-04    0.993E-04
RMM:  27    -0.128212908945E+04   -0.18066E-05   -0.53234E-08   868   0.398E-04    0.992E-04
RMM:  28    -0.128212909092E+04   -0.14655E-05   -0.50625E-08   863   0.391E-04    0.374E-04
RMM:  29    -0.128212909213E+04   -0.12135E-05   -0.47169E-08   792   0.373E-04    0.698E-04
RMM:  30    -0.128212909339E+04   -0.12603E-05   -0.51591E-08   820   0.380E-04    0.654E-04
RMM:  31    -0.128212909445E+04   -0.10658E-05   -0.52904E-08   832   0.373E-04    0.233E-04
RMM:  32    -0.128212909513E+04   -0.67446E-06   -0.42083E-08   764   0.360E-04
   9 F= -.12914565E+04 E0= -.12914452E+04  d E =-.419216E-01  mag=    31.9932
 curvature:  -0.38 expect dE=-0.464E-01 dE for cont linesearch -0.438E-06
 trial: gam= 0.69458 g(F)=  0.120E+00 g(S)=  0.818E-03 ort =-0.551E-03 (trialstep = 0.377E+00)
 search vector abs. value=  0.248E+00
 bond charge predicted
       N       E                     dE             d eps       ncg     rms          rms(c)
DAV:   1    -0.128213143014E+04   -0.23357E-02   -0.10363E+01  2160   0.565E+00    0.104E+00
RMM:   2    -0.128215527746E+04   -0.23847E-01   -0.20562E-01  2544   0.873E-01    0.138E+00
RMM:   3    -0.128219828669E+04   -0.43009E-01   -0.47735E-02  2644   0.406E-01    0.674E+00
RMM:   4    -0.128214305871E+04    0.55228E-01   -0.29121E-02  2449   0.367E-01    0.150E+00
RMM:   5    -0.128215688897E+04   -0.13830E-01   -0.13591E-02  2352   0.261E-01    0.689E-01
RMM:   6    -0.128215800862E+04   -0.11196E-02   -0.35364E-03  2446   0.124E-01    0.536E-01
RMM:   7    -0.128215830591E+04   -0.29730E-03   -0.15780E-03  2555   0.773E-02    0.484E-01
RMM:   8    -0.128215853074E+04   -0.22483E-03   -0.14802E-03  2429   0.740E-02    0.479E-01
RMM:   9    -0.128215844263E+04    0.88118E-04   -0.93863E-04  2477   0.620E-02    0.323E-01
RMM:  10    -0.128215846657E+04   -0.23945E-04   -0.46771E-04  2379   0.467E-02    0.300E-01
RMM:  11    -0.128215838082E+04    0.85754E-04   -0.23959E-04  2332   0.307E-02    0.225E-01
RMM:  12    -0.128215834430E+04    0.36518E-04   -0.12357E-04  2249   0.230E-02    0.983E-02
RMM:  13    -0.128215838945E+04   -0.45149E-04   -0.58455E-05  2036   0.154E-02    0.523E-02
RMM:  14    -0.128215842229E+04   -0.32842E-04   -0.32355E-05  1912   0.122E-02    0.679E-02
RMM:  15    -0.128215842386E+04   -0.15697E-05   -0.17356E-05  1662   0.898E-03    0.394E-02
RMM:  16    -0.128215842515E+04   -0.12858E-05   -0.68121E-06  1558   0.585E-03    0.211E-02
RMM:  17    -0.128215842995E+04   -0.48012E-05   -0.35620E-06  1486   0.410E-03    0.239E-02
RMM:  18    -0.128215843578E+04   -0.58336E-05   -0.31206E-06  1467   0.395E-03    0.182E-02
RMM:  19    -0.128215844349E+04   -0.77134E-05   -0.24391E-06  1437   0.335E-03    0.172E-02
RMM:  20    -0.128215844876E+04   -0.52645E-05   -0.16546E-06  1392   0.296E-03    0.983E-03
RMM:  21    -0.128215845242E+04   -0.36652E-05   -0.64670E-07  1259   0.193E-03    0.666E-03
RMM:  22    -0.128215845494E+04   -0.25175E-05   -0.44983E-07  1186   0.146E-03    0.756E-03
RMM:  23    -0.128215845860E+04   -0.36620E-05   -0.30926E-07  1146   0.123E-03    0.408E-03
RMM:  24    -0.128215846355E+04   -0.49482E-05   -0.28301E-07  1147   0.108E-03    0.466E-03
RMM:  25    -0.128215846881E+04   -0.52633E-05   -0.23397E-07  1153   0.979E-04    0.295E-03
RMM:  26    -0.128215847202E+04   -0.32090E-05   -0.16907E-07  1075   0.791E-04    0.296E-03
RMM:  27    -0.128215847420E+04   -0.21724E-05   -0.13189E-07   990   0.719E-04    0.194E-03
RMM:  28    -0.128215847685E+04   -0.26526E-05   -0.99503E-08   943   0.570E-04    0.144E-03
RMM:  29    -0.128215848013E+04   -0.32855E-05   -0.96850E-08   959   0.532E-04    0.914E-04
RMM:  30    -0.128215848374E+04   -0.36075E-05   -0.10661E-07   983   0.488E-04    0.748E-04
RMM:  31    -0.128215848659E+04   -0.28448E-05   -0.10446E-07   973   0.497E-04    0.552E-04
RMM:  32    -0.128215848866E+04   -0.20692E-05   -0.96727E-08   929   0.448E-04    0.484E-04
RMM:  33    -0.128215849005E+04   -0.13941E-05   -0.79797E-08   855   0.426E-04    0.261E-04
RMM:  34    -0.128215849142E+04   -0.13660E-05   -0.80118E-08   853   0.401E-04    0.214E-04
RMM:  35    -0.128215849228E+04   -0.86482E-06   -0.68874E-08   852   0.404E-04
  10 F= -.12914884E+04 E0= -.12914775E+04  d E =-.319241E-01  mag=    31.9958
 trial-energy change:   -0.031924  1 .order   -0.031900   -0.045469   -0.018332
 step:   0.6313(harm=  0.6313)  dis= 0.01420  next Energy= -1291.494609 (dE=-0.381E-01)
 bond charge predicted
       N       E                     dE             d eps       ncg     rms          rms(c)
DAV:   1    -0.128215083170E+04    0.76597E-02   -0.47277E+00  2160   0.380E+00    0.697E-01
RMM:   2    -0.128216117607E+04   -0.10344E-01   -0.90787E-02  2536   0.584E-01    0.928E-01
RMM:   3    -0.128218332490E+04   -0.22149E-01   -0.21113E-02  2630   0.272E-01    0.504E+00
RMM:   4    -0.128215152885E+04    0.31796E-01   -0.14722E-02  2428   0.266E-01    0.877E-01
RMM:   5    -0.128216119077E+04   -0.96619E-02   -0.58145E-03  2323   0.176E-01    0.396E-01
RMM:   6    -0.128216286530E+04   -0.16745E-02   -0.17117E-03  2437   0.876E-02    0.439E-01
RMM:   7    -0.128216273263E+04    0.13267E-03   -0.99062E-04  2457   0.637E-02    0.335E-01
RMM:   8    -0.128216296196E+04   -0.22933E-03   -0.76914E-04  2466   0.541E-02    0.343E-01
RMM:   9    -0.128216280893E+04    0.15303E-03   -0.44935E-04  2438   0.445E-02    0.230E-01
RMM:  10    -0.128216283295E+04   -0.24017E-04   -0.18189E-04  2254   0.294E-02    0.242E-01
RMM:  11    -0.128216276043E+04    0.72515E-04   -0.83119E-05  2130   0.189E-02    0.163E-01
RMM:  12    -0.128216276960E+04   -0.91614E-05   -0.35806E-05  1963   0.125E-02    0.727E-02
RMM:  13    -0.128216280610E+04   -0.36507E-04   -0.26741E-05  1859   0.113E-02    0.608E-02
RMM:  14    -0.128216281765E+04   -0.11549E-04   -0.15410E-05  1662   0.873E-03    0.338E-02
RMM:  15    -0.128216282495E+04   -0.73015E-05   -0.75479E-06  1556   0.639E-03    0.256E-02
RMM:  16    -0.128216282657E+04   -0.16209E-05   -0.30373E-06  1462   0.419E-03    0.205E-02
RMM:  17    -0.128216282802E+04   -0.14429E-05   -0.17416E-06  1413   0.311E-03    0.179E-02
RMM:  18    -0.128216283071E+04   -0.26951E-05   -0.13818E-06  1361   0.264E-03    0.153E-02
RMM:  19    -0.128216283407E+04   -0.33576E-05   -0.13835E-06  1373   0.265E-03    0.123E-02
RMM:  20    -0.128216283759E+04   -0.35164E-05   -0.79793E-07  1272   0.219E-03    0.520E-03
RMM:  21    -0.128216284052E+04   -0.29386E-05   -0.38312E-07  1198   0.143E-03    0.542E-03
RMM:  22    -0.128216284188E+04   -0.13571E-05   -0.27478E-07  1163   0.123E-03    0.607E-03
RMM:  23    -0.128216284357E+04   -0.16865E-05   -0.18451E-07  1128   0.940E-04    0.447E-03
RMM:  24    -0.128216284565E+04   -0.20858E-05   -0.13689E-07  1092   0.796E-04    0.335E-03
RMM:  25    -0.128216284798E+04   -0.23232E-05   -0.94232E-08  1003   0.598E-04    0.244E-03
RMM:  26    -0.128216284948E+04   -0.15004E-05   -0.72664E-08   892   0.563E-04    0.209E-03
RMM:  27    -0.128216285068E+04   -0.12069E-05   -0.53437E-08   823   0.472E-04    0.130E-03
RMM:  28    -0.128216285197E+04   -0.12817E-05   -0.44290E-08   816   0.421E-04    0.786E-04
RMM:  29    -0.128216285354E+04   -0.15797E-05   -0.46687E-08   845   0.387E-04    0.540E-04
RMM:  30    -0.128216285523E+04   -0.16817E-05   -0.54329E-08   884   0.397E-04    0.424E-04
RMM:  31    -0.128216285643E+04   -0.12083E-05   -0.50691E-08   841   0.385E-04    0.320E-04
RMM:  32    -0.128216285722E+04   -0.78527E-06   -0.40710E-08   764   0.359E-04
  11 F= -.12914945E+04 E0= -.12914836E+04  d E =-.379779E-01  mag=    31.9969
 curvature:  -0.65 expect dE=-0.442E-01 dE for cont linesearch -0.314E-05
 trial: gam= 0.54741 g(F)=  0.677E-01 g(S)=  0.286E-03 ort =-0.110E-02 (trialstep = 0.428E+00)
 search vector abs. value=  0.141E+00
 bond charge predicted
       N       E                     dE             d eps       ncg     rms          rms(c)
DAV:   1    -0.128215871339E+04    0.41430E-02   -0.69850E+00  2160   0.505E+00    0.836E-01
RMM:   2    -0.128217563017E+04   -0.16917E-01   -0.15748E-01  2627   0.748E-01    0.122E+00
RMM:   3    -0.128220623681E+04   -0.30607E-01   -0.29167E-02  2639   0.335E-01    0.605E+00
RMM:   4    -0.128216080199E+04    0.45435E-01   -0.20886E-02  2430   0.321E-01    0.991E-01
RMM:   5    -0.128217452690E+04   -0.13725E-01   -0.78474E-03  2338   0.208E-01    0.444E-01
RMM:   6    -0.128217711701E+04   -0.25901E-02   -0.22994E-03  2464   0.104E-01    0.599E-01
RMM:   7    -0.128217651926E+04    0.59775E-03   -0.12839E-03  2440   0.746E-02    0.455E-01
RMM:   8    -0.128217686667E+04   -0.34741E-03   -0.12499E-03  2425   0.691E-02    0.384E-01
RMM:   9    -0.128217672255E+04    0.14411E-03   -0.72345E-04  2447   0.584E-02    0.335E-01
RMM:  10    -0.128217662183E+04    0.10072E-03   -0.33792E-04  2359   0.397E-02    0.333E-01
RMM:  11    -0.128217654343E+04    0.78399E-04   -0.11174E-04  2301   0.222E-02    0.180E-01
RMM:  12    -0.128217657819E+04   -0.34762E-04   -0.51604E-05  2043   0.149E-02    0.110E-01
RMM:  13    -0.128217660706E+04   -0.28868E-04   -0.31869E-05  1917   0.121E-02    0.509E-02
RMM:  14    -0.128217662923E+04   -0.22172E-04   -0.13733E-05  1715   0.838E-03    0.355E-02
RMM:  15    -0.128217663708E+04   -0.78450E-05   -0.82772E-06  1565   0.650E-03    0.316E-02
RMM:  16    -0.128217664407E+04   -0.69895E-05   -0.41351E-06  1508   0.496E-03    0.151E-02
RMM:  17    -0.128217664968E+04   -0.56111E-05   -0.29386E-06  1463   0.397E-03    0.166E-02
RMM:  18    -0.128217665484E+04   -0.51626E-05   -0.17437E-06  1394   0.303E-03    0.125E-02
RMM:  19    -0.128217665970E+04   -0.48551E-05   -0.11639E-06  1333   0.253E-03    0.818E-03
RMM:  20    -0.128217666470E+04   -0.50047E-05   -0.55330E-07  1265   0.172E-03    0.717E-03
RMM:  21    -0.128217666943E+04   -0.47316E-05   -0.39296E-07  1207   0.133E-03    0.733E-03
RMM:  22    -0.128217667370E+04   -0.42662E-05   -0.34022E-07  1168   0.123E-03    0.764E-03
RMM:  23    -0.128217667919E+04   -0.54916E-05   -0.30625E-07  1174   0.110E-03    0.495E-03
RMM:  24    -0.128217668373E+04   -0.45367E-05   -0.22211E-07  1130   0.953E-04    0.268E-03
RMM:  25    -0.128217668685E+04   -0.31260E-05   -0.13998E-07  1032   0.652E-04    0.176E-03
RMM:  26    -0.128217668938E+04   -0.25258E-05   -0.10691E-07   968   0.594E-04    0.165E-03
RMM:  27    -0.128217669161E+04   -0.22317E-05   -0.91786E-08   917   0.552E-04    0.158E-03
RMM:  28    -0.128217669455E+04   -0.29418E-05   -0.91181E-08   936   0.519E-04    0.104E-03
RMM:  29    -0.128217669764E+04   -0.30910E-05   -0.93062E-08   943   0.501E-04    0.774E-04
RMM:  30    -0.128217670078E+04   -0.31317E-05   -0.10032E-07   984   0.469E-04    0.676E-04
RMM:  31    -0.128217670324E+04   -0.24628E-05   -0.96363E-08   958   0.454E-04    0.557E-04
RMM:  32    -0.128217670523E+04   -0.19906E-05   -0.92818E-08   915   0.432E-04    0.464E-04
RMM:  33    -0.128217670684E+04   -0.16092E-05   -0.86294E-08   878   0.425E-04    0.358E-04
RMM:  34    -0.128217670803E+04   -0.11954E-05   -0.79321E-08   852   0.408E-04    0.194E-04
RMM:  35    -0.128217670895E+04   -0.91321E-06   -0.73080E-08   857   0.400E-04
  12 F= -.12915111E+04 E0= -.12915003E+04  d E =-.166030E-01  mag=    31.9978
 trial-energy change:   -0.016603  1 .order   -0.016628   -0.028805   -0.004451
 step:   0.5059(harm=  0.5059)  dis= 0.01216  next Energy= -1291.511530 (dE=-0.170E-01)
 bond charge predicted
       N       E                     dE             d eps       ncg     rms          rms(c)
DAV:   1    -0.128217600889E+04    0.69914E-03   -0.23346E-01  2292   0.924E-01    0.152E-01
RMM:   2    -0.128217650327E+04   -0.49437E-03   -0.52054E-03  2612   0.137E-01    0.249E-01
RMM:   3    -0.128217729412E+04   -0.79085E-03   -0.95473E-04  2629   0.607E-02    0.869E-01
RMM:   4    -0.128217611801E+04    0.11761E-02   -0.56075E-04  2449   0.535E-02    0.154E-01
RMM:   5    -0.128217649445E+04   -0.37644E-03   -0.17783E-04  2234   0.321E-02    0.767E-02
RMM:   6    -0.128217659382E+04   -0.99367E-04   -0.71588E-05  2237   0.182E-02    0.107E-01
RMM:   7    -0.128217658694E+04    0.68809E-05   -0.44347E-05  2134   0.141E-02    0.836E-02
RMM:   8    -0.128217659571E+04   -0.87742E-05   -0.42718E-05  2006   0.132E-02    0.692E-02
RMM:   9    -0.128217660052E+04   -0.48079E-05   -0.21712E-05  1912   0.101E-02    0.596E-02
RMM:  10    -0.128217659584E+04    0.46779E-05   -0.11290E-05  1621   0.769E-03    0.549E-02
RMM:  11    -0.128217659601E+04   -0.17017E-06   -0.39888E-06  1496   0.463E-03
  13 F= -.12915115E+04 E0= -.12915006E+04  d E =-.169924E-01  mag=    31.9978
 curvature:  -0.53 expect dE=-0.238E-01 dE for cont linesearch -0.380E-08
 trial: gam= 0.63764 g(F)=  0.445E-01 g(S)=  0.281E-03 ort = 0.318E-04 (trialstep = 0.443E+00)
 search vector abs. value=  0.102E+00
 bond charge predicted
       N       E                     dE             d eps       ncg     rms          rms(c)
DAV:   1    -0.128217450715E+04    0.20887E-02   -0.49049E+00  2160   0.440E+00    0.656E-01
RMM:   2    -0.128218652163E+04   -0.12014E-01   -0.11650E-01  2663   0.638E-01    0.104E+00
RMM:   3    -0.128220174631E+04   -0.15225E-01   -0.18446E-02  2592   0.283E-01    0.425E+00
RMM:   4    -0.128218056164E+04    0.21185E-01   -0.12877E-02  2484   0.250E-01    0.102E+00
RMM:   5    -0.128218590795E+04   -0.53463E-02   -0.53932E-03  2373   0.174E-01    0.333E-01
RMM:   6    -0.128218725203E+04   -0.13441E-02   -0.14804E-03  2539   0.803E-02    0.472E-01
RMM:   7    -0.128218688190E+04    0.37014E-03   -0.82647E-04  2487   0.597E-02    0.305E-01
RMM:   8    -0.128218708726E+04   -0.20536E-03   -0.89163E-04  2421   0.587E-02    0.299E-01
RMM:   9    -0.128218703568E+04    0.51580E-04   -0.45956E-04  2481   0.446E-02    0.249E-01
RMM:  10    -0.128218696895E+04    0.66730E-04   -0.26636E-04  2365   0.342E-02    0.254E-01
RMM:  11    -0.128218692122E+04    0.47724E-04   -0.10607E-04  2232   0.211E-02    0.194E-01
RMM:  12    -0.128218690150E+04    0.19720E-04   -0.47780E-05  1979   0.146E-02    0.894E-02
RMM:  13    -0.128218693292E+04   -0.31417E-04   -0.22133E-05  1843   0.104E-02    0.421E-02
RMM:  14    -0.128218695641E+04   -0.23488E-04   -0.12823E-05  1685   0.799E-03    0.369E-02
RMM:  15    -0.128218696422E+04   -0.78070E-05   -0.59563E-06  1538   0.593E-03    0.173E-02
RMM:  16    -0.128218697421E+04   -0.99934E-05   -0.25804E-06  1455   0.383E-03    0.154E-02
RMM:  17    -0.128218697978E+04   -0.55713E-05   -0.16775E-06  1398   0.309E-03    0.120E-02
RMM:  18    -0.128218698987E+04   -0.10090E-04   -0.11501E-06  1347   0.239E-03    0.742E-03
RMM:  19    -0.128218699995E+04   -0.10076E-04   -0.72815E-07  1301   0.196E-03    0.439E-03
RMM:  20    -0.128218700877E+04   -0.88209E-05   -0.55572E-07  1258   0.154E-03    0.707E-03
RMM:  21    -0.128218701342E+04   -0.46528E-05   -0.38983E-07  1183   0.138E-03    0.379E-03
RMM:  22    -0.128218701857E+04   -0.51539E-05   -0.23152E-07  1120   0.892E-04    0.248E-03
RMM:  23    -0.128218702408E+04   -0.55101E-05   -0.18104E-07  1089   0.791E-04    0.198E-03
RMM:  24    -0.128218703065E+04   -0.65695E-05   -0.18460E-07  1045   0.729E-04    0.226E-03
RMM:  25    -0.128218703556E+04   -0.49029E-05   -0.16615E-07  1032   0.727E-04    0.181E-03
RMM:  26    -0.128218704054E+04   -0.49834E-05   -0.14991E-07   955   0.601E-04    0.120E-03
RMM:  27    -0.128218704315E+04   -0.26152E-05   -0.10654E-07   922   0.539E-04    0.956E-04
RMM:  28    -0.128218704609E+04   -0.29311E-05   -0.98058E-08   892   0.468E-04    0.101E-03
RMM:  29    -0.128218705073E+04   -0.46423E-05   -0.12087E-07   996   0.496E-04    0.865E-04
RMM:  30    -0.128218705577E+04   -0.50440E-05   -0.15886E-07  1026   0.511E-04    0.720E-04
RMM:  31    -0.128218705865E+04   -0.28735E-05   -0.13476E-07   956   0.516E-04    0.518E-04
RMM:  32    -0.128218706147E+04   -0.28271E-05   -0.15493E-07   985   0.478E-04    0.388E-04
RMM:  33    -0.128218706351E+04   -0.20356E-05   -0.13798E-07   968   0.513E-04    0.292E-04
RMM:  34    -0.128218706485E+04   -0.13414E-05   -0.13342E-07   920   0.460E-04    0.171E-04
RMM:  35    -0.128218706547E+04   -0.62193E-06   -0.97542E-08   880   0.463E-04
  14 F= -.12915247E+04 E0= -.12915138E+04  d E =-.131726E-01  mag=    31.9979
 trial-energy change:   -0.013173  1 .order   -0.013186   -0.019870   -0.006503
 step:   0.6590(harm=  0.6590)  dis= 0.01688  next Energy= -1291.526255 (dE=-0.148E-01)
 bond charge predicted
       N       E                     dE             d eps       ncg     rms          rms(c)
DAV:   1    -0.128218433049E+04    0.27344E-02   -0.11608E+00  2256   0.214E+00    0.318E-01
RMM:   2    -0.128218699920E+04   -0.26687E-02   -0.27568E-02  2660   0.311E-01    0.487E-01
RMM:   3    -0.128219055460E+04   -0.35554E-02   -0.43313E-03  2593   0.137E-01    0.191E+00
RMM:   4    -0.128218574409E+04    0.48105E-02   -0.28317E-03  2504   0.117E-01    0.466E-01
RMM:   5    -0.128218695847E+04   -0.12144E-02   -0.11412E-03  2379   0.799E-02    0.150E-01
RMM:   6    -0.128218730002E+04   -0.34155E-03   -0.32883E-04  2503   0.374E-02    0.220E-01
RMM:   7    -0.128218723517E+04    0.64850E-04   -0.19870E-04  2436   0.292E-02    0.151E-01
RMM:   8    -0.128218729422E+04   -0.59047E-04   -0.21510E-04  2353   0.289E-02    0.150E-01
RMM:   9    -0.128218729685E+04   -0.26374E-05   -0.11934E-04  2355   0.220E-02    0.137E-01
RMM:  10    -0.128218726614E+04    0.30718E-04   -0.67983E-05  2077   0.177E-02    0.111E-01
RMM:  11    -0.128218725928E+04    0.68556E-05   -0.27806E-05  1853   0.110E-02    0.847E-02
RMM:  12    -0.128218725942E+04   -0.14449E-06   -0.10667E-05  1593   0.723E-03    0.327E-02
RMM:  13    -0.128218726955E+04   -0.10127E-04   -0.44953E-06  1526   0.498E-03    0.160E-02
RMM:  14    -0.128218727595E+04   -0.63999E-05   -0.27003E-06  1452   0.398E-03    0.179E-02
RMM:  15    -0.128218727764E+04   -0.16906E-05   -0.12526E-06  1365   0.299E-03    0.812E-03
RMM:  16    -0.128218728030E+04   -0.26595E-05   -0.55241E-07  1267   0.182E-03    0.648E-03
RMM:  17    -0.128218728201E+04   -0.17089E-05   -0.38420E-07  1246   0.151E-03    0.624E-03
RMM:  18    -0.128218728456E+04   -0.25459E-05   -0.26510E-07  1182   0.117E-03    0.355E-03
RMM:  19    -0.128218728736E+04   -0.28089E-05   -0.18381E-07  1133   0.953E-04    0.211E-03
RMM:  20    -0.128218728996E+04   -0.25980E-05   -0.13569E-07  1133   0.750E-04    0.319E-03
RMM:  21    -0.128218729112E+04   -0.11567E-05   -0.94680E-08  1036   0.677E-04    0.203E-03
RMM:  22    -0.128218729273E+04   -0.16119E-05   -0.57182E-08   868   0.476E-04    0.975E-04
RMM:  23    -0.128218729421E+04   -0.14797E-05   -0.45571E-08   821   0.437E-04    0.763E-04
RMM:  24    -0.128218729623E+04   -0.20229E-05   -0.50074E-08   845   0.407E-04    0.780E-04
RMM:  25    -0.128218729758E+04   -0.13487E-05   -0.45400E-08   838   0.416E-04    0.966E-04
RMM:  26    -0.128218729841E+04   -0.82258E-06   -0.31122E-08   712   0.368E-04
  15 F= -.12915262E+04 E0= -.12915154E+04  d E =-.147233E-01  mag=    31.9979
 curvature:  -0.75 expect dE=-0.279E-01 dE for cont linesearch -0.877E-07
 trial: gam= 0.83117 g(F)=  0.370E-01 g(S)=  0.813E-04 ort =-0.109E-03 (trialstep = 0.462E+00)
 search vector abs. value=  0.108E+00
 bond charge predicted
       N       E                     dE             d eps       ncg     rms          rms(c)
DAV:   1    -0.128218134376E+04    0.59538E-02   -0.56587E+00  2160   0.472E+00    0.658E-01
RMM:   2    -0.128219644804E+04   -0.15104E-01   -0.13129E-01  2618   0.680E-01    0.147E+00
RMM:   3    -0.128220309865E+04   -0.66506E-02   -0.19684E-02  2577   0.296E-01    0.322E+00
RMM:   4    -0.128219286350E+04    0.10235E-01   -0.10749E-02  2567   0.229E-01    0.101E+00
RMM:   5    -0.128219481102E+04   -0.19475E-02   -0.41060E-03  2422   0.148E-01    0.394E-01
RMM:   6    -0.128219564303E+04   -0.83200E-03   -0.12849E-03  2538   0.728E-02    0.485E-01
RMM:   7    -0.128219518608E+04    0.45695E-03   -0.78773E-04  2526   0.568E-02    0.240E-01
RMM:   8    -0.128219569395E+04   -0.50787E-03   -0.97784E-04  2438   0.614E-02    0.414E-01
RMM:   9    -0.128219541349E+04    0.28046E-03   -0.52981E-04  2482   0.492E-02    0.303E-01
RMM:  10    -0.128219534909E+04    0.64391E-04   -0.24630E-04  2334   0.324E-02    0.244E-01
RMM:  11    -0.128219531243E+04    0.36669E-04   -0.10171E-04  2251   0.200E-02    0.140E-01
RMM:  12    -0.128219533347E+04   -0.21048E-04   -0.53033E-05  1994   0.158E-02    0.441E-02
RMM:  13    -0.128219537921E+04   -0.45741E-04   -0.26874E-05  1893   0.113E-02    0.676E-02
RMM:  14    -0.128219538690E+04   -0.76810E-05   -0.13901E-05  1665   0.847E-03    0.494E-02
RMM:  15    -0.128219539101E+04   -0.41135E-05   -0.66348E-06  1540   0.594E-03    0.205E-02
RMM:  16    -0.128219540398E+04   -0.12966E-04   -0.27431E-06  1455   0.378E-03    0.135E-02
RMM:  17    -0.128219541498E+04   -0.11000E-04   -0.19284E-06  1423   0.309E-03    0.166E-02
RMM:  18    -0.128219542609E+04   -0.11117E-04   -0.16612E-06  1393   0.287E-03    0.103E-02
RMM:  19    -0.128219544211E+04   -0.16016E-04   -0.11222E-06  1337   0.239E-03    0.109E-02
RMM:  20    -0.128219545395E+04   -0.11842E-04   -0.72847E-07  1276   0.189E-03    0.673E-03
RMM:  21    -0.128219545946E+04   -0.55059E-05   -0.44194E-07  1168   0.143E-03    0.518E-03
RMM:  22    -0.128219546451E+04   -0.50562E-05   -0.31148E-07  1121   0.112E-03    0.476E-03
RMM:  23    -0.128219547309E+04   -0.85748E-05   -0.26693E-07  1127   0.100E-03    0.292E-03
RMM:  24    -0.128219548532E+04   -0.12229E-04   -0.33795E-07  1172   0.983E-04    0.333E-03
RMM:  25    -0.128219549344E+04   -0.81213E-05   -0.29780E-07  1128   0.101E-03    0.315E-03
RMM:  26    -0.128219549799E+04   -0.45498E-05   -0.20434E-07  1010   0.792E-04    0.166E-03
RMM:  27    -0.128219550550E+04   -0.75101E-05   -0.20484E-07  1029   0.642E-04    0.126E-03
RMM:  28    -0.128219551110E+04   -0.56056E-05   -0.18309E-07  1015   0.663E-04    0.124E-03
RMM:  29    -0.128219551869E+04   -0.75863E-05   -0.23578E-07  1060   0.609E-04    0.917E-04
RMM:  30    -0.128219552501E+04   -0.63180E-05   -0.22544E-07  1069   0.637E-04    0.637E-04
RMM:  31    -0.128219552994E+04   -0.49336E-05   -0.24360E-07  1028   0.580E-04    0.435E-04
RMM:  32    -0.128219553299E+04   -0.30518E-05   -0.20333E-07   991   0.595E-04    0.340E-04
RMM:  33    -0.128219553531E+04   -0.23146E-05   -0.19007E-07   948   0.522E-04    0.232E-04
RMM:  34    -0.128219553689E+04   -0.15831E-05   -0.15755E-07   962   0.534E-04    0.166E-04
RMM:  35    -0.128219553768E+04   -0.79245E-06   -0.12057E-07   859   0.453E-04
  16 F= -.12915366E+04 E0= -.12915259E+04  d E =-.104055E-01  mag=    31.9981
 trial-energy change:   -0.010406  1 .order   -0.010409   -0.017122   -0.003696
 step:   0.5897(harm=  0.5897)  dis= 0.01800  next Energy= -1291.537128 (dE=-0.109E-01)
 bond charge predicted
       N       E                     dE             d eps       ncg     rms          rms(c)
DAV:   1    -0.128219437321E+04    0.11637E-02   -0.42899E-01  2304   0.130E+00    0.181E-01
RMM:   2    -0.128219543769E+04   -0.10645E-02   -0.98736E-03  2618   0.187E-01    0.455E-01
RMM:   3    -0.128219573350E+04   -0.29581E-03   -0.14476E-03  2583   0.805E-02    0.716E-01
RMM:   4    -0.128219522060E+04    0.51290E-03   -0.71532E-04  2572   0.594E-02    0.245E-01
RMM:   5    -0.128219532785E+04   -0.10725E-03   -0.22452E-04  2352   0.343E-02    0.833E-02
RMM:   6    -0.128219542036E+04   -0.92515E-04   -0.85701E-05  2346   0.188E-02    0.126E-01
RMM:   7    -0.128219539519E+04    0.25171E-04   -0.65764E-05  2236   0.167E-02    0.766E-02
RMM:   8    -0.128219544088E+04   -0.45687E-04   -0.73729E-05  2188   0.170E-02    0.110E-01
RMM:   9    -0.128219541843E+04    0.22444E-04   -0.37826E-05  1997   0.127E-02    0.604E-02
RMM:  10    -0.128219541952E+04   -0.10843E-05   -0.15887E-05  1692   0.883E-03    0.496E-02
RMM:  11    -0.128219541813E+04    0.13868E-05   -0.65728E-06  1554   0.581E-03    0.286E-02
RMM:  12    -0.128219542184E+04   -0.37038E-05   -0.28967E-06  1467   0.408E-03    0.109E-02
RMM:  13    -0.128219542587E+04   -0.40313E-05   -0.15701E-06  1404   0.299E-03    0.160E-02
RMM:  14    -0.128219542683E+04   -0.96652E-06   -0.89767E-07  1312   0.238E-03
  17 F= -.12915371E+04 E0= -.12915264E+04  d E =-.108920E-01  mag=    31.9981
 curvature:  -0.86 expect dE=-0.310E-01 dE for cont linesearch -0.667E-07
 trial: gam= 0.96444 g(F)=  0.359E-01 g(S)=  0.291E-03 ort =-0.915E-04 (trialstep = 0.386E+00)
 search vector abs. value=  0.136E+00
 bond charge predicted
       N       E                     dE             d eps       ncg     rms          rms(c)
DAV:   1    -0.128219063258E+04    0.47933E-02   -0.47798E+00  2160   0.436E+00    0.622E-01
RMM:   2    -0.128220482372E+04   -0.14191E-01   -0.11252E-01  2626   0.632E-01    0.162E+00
RMM:   3    -0.128220707954E+04   -0.22558E-02   -0.16403E-02  2579   0.276E-01    0.261E+00
RMM:   4    -0.128220098440E+04    0.60951E-02   -0.85050E-03  2575   0.203E-01    0.797E-01
RMM:   5    -0.128220213047E+04   -0.11461E-02   -0.30162E-03  2401   0.126E-01    0.348E-01
RMM:   6    -0.128220279016E+04   -0.65969E-03   -0.10885E-03  2546   0.652E-02    0.454E-01
RMM:   7    -0.128220233401E+04    0.45615E-03   -0.69858E-04  2526   0.524E-02    0.197E-01
RMM:   8    -0.128220285352E+04   -0.51951E-03   -0.76715E-04  2419   0.543E-02    0.421E-01
RMM:   9    -0.128220250665E+04    0.34687E-03   -0.42639E-04  2422   0.433E-02    0.266E-01
RMM:  10    -0.128220248067E+04    0.25984E-04   -0.19209E-04  2260   0.276E-02    0.204E-01
RMM:  11    -0.128220247768E+04    0.29845E-05   -0.85985E-05  2173   0.185E-02    0.122E-01
RMM:  12    -0.128220250117E+04   -0.23483E-04   -0.59061E-05  2007   0.164E-02    0.510E-02
RMM:  13    -0.128220253762E+04   -0.36459E-04   -0.25253E-05  1844   0.109E-02    0.742E-02
RMM:  14    -0.128220253433E+04    0.32928E-05   -0.14534E-05  1623   0.862E-03    0.402E-02
RMM:  15    -0.128220254197E+04   -0.76352E-05   -0.51641E-06  1524   0.525E-03    0.178E-02
RMM:  16    -0.128220255053E+04   -0.85621E-05   -0.26284E-06  1456   0.370E-03    0.164E-02
RMM:  17    -0.128220255715E+04   -0.66260E-05   -0.22923E-06  1436   0.330E-03    0.210E-02
RMM:  18    -0.128220256418E+04   -0.70219E-05   -0.18658E-06  1405   0.299E-03    0.157E-02
RMM:  19    -0.128220257432E+04   -0.10144E-04   -0.14449E-06  1364   0.263E-03    0.142E-02
RMM:  20    -0.128220258097E+04   -0.66511E-05   -0.81723E-07  1288   0.213E-03    0.815E-03
RMM:  21    -0.128220258477E+04   -0.37938E-05   -0.48373E-07  1184   0.153E-03    0.676E-03
RMM:  22    -0.128220259042E+04   -0.56568E-05   -0.37362E-07  1167   0.129E-03    0.490E-03
RMM:  23    -0.128220259726E+04   -0.68323E-05   -0.35699E-07  1154   0.125E-03    0.367E-03
RMM:  24    -0.128220260593E+04   -0.86703E-05   -0.34752E-07  1183   0.111E-03    0.344E-03
RMM:  25    -0.128220261055E+04   -0.46263E-05   -0.25081E-07  1119   0.976E-04    0.216E-03
RMM:  26    -0.128220261454E+04   -0.39870E-05   -0.22055E-07  1047   0.795E-04    0.297E-03
RMM:  27    -0.128220261722E+04   -0.26777E-05   -0.17561E-07  1003   0.777E-04    0.186E-03
RMM:  28    -0.128220262101E+04   -0.37904E-05   -0.15573E-07   988   0.599E-04    0.143E-03
RMM:  29    -0.128220262364E+04   -0.26332E-05   -0.12906E-07   987   0.608E-04    0.885E-04
RMM:  30    -0.128220262653E+04   -0.28909E-05   -0.13443E-07   970   0.498E-04    0.621E-04
RMM:  31    -0.128220262855E+04   -0.20207E-05   -0.11054E-07   947   0.500E-04    0.391E-04
RMM:  32    -0.128220262960E+04   -0.10516E-05   -0.84047E-08   811   0.415E-04    0.269E-04
RMM:  33    -0.128220263061E+04   -0.10063E-05   -0.71252E-08   812   0.408E-04    0.211E-04
RMM:  34    -0.128220263133E+04   -0.72293E-06   -0.62105E-08   794   0.375E-04
  18 F= -.12915462E+04 E0= -.12915355E+04  d E =-.912753E-02  mag=    31.9985
 trial-energy change:   -0.009128  1 .order   -0.009118   -0.013922   -0.004314
 step:   0.5589(harm=  0.5589)  dis= 0.01940  next Energy= -1291.547189 (dE=-0.101E-01)
 bond charge predicted
       N       E                     dE             d eps       ncg     rms          rms(c)
DAV:   1    -0.128220031199E+04    0.23186E-02   -0.96391E-01  2172   0.196E+00    0.278E-01
RMM:   2    -0.128220313608E+04   -0.28241E-02   -0.22564E-02  2626   0.283E-01    0.827E-01
RMM:   3    -0.128220309501E+04    0.41070E-04   -0.32310E-03  2582   0.123E-01    0.970E-01
RMM:   4    -0.128220240953E+04    0.68548E-03   -0.15492E-03  2588   0.873E-02    0.321E-01
RMM:   5    -0.128220255165E+04   -0.14213E-03   -0.46198E-04  2384   0.486E-02    0.128E-01
RMM:   6    -0.128220271356E+04   -0.16191E-03   -0.21023E-04  2457   0.283E-02    0.196E-01
RMM:   7    -0.128220263277E+04    0.80787E-04   -0.14862E-04  2402   0.246E-02    0.963E-02
RMM:   8    -0.128220273820E+04   -0.10543E-03   -0.15126E-04  2327   0.243E-02    0.165E-01
RMM:   9    -0.128220267724E+04    0.60962E-04   -0.77383E-05  2189   0.187E-02    0.835E-02
RMM:  10    -0.128220267824E+04   -0.99617E-06   -0.30679E-05  1854   0.113E-02    0.641E-02
RMM:  11    -0.128220268233E+04   -0.40939E-05   -0.13502E-05  1620   0.747E-03    0.518E-02
RMM:  12    -0.128220268475E+04   -0.24182E-05   -0.82609E-06  1567   0.634E-03    0.200E-02
RMM:  13    -0.128220269364E+04   -0.88849E-05   -0.46161E-06  1513   0.478E-03    0.307E-02
RMM:  14    -0.128220269365E+04   -0.10921E-07   -0.24386E-06  1431   0.386E-03
  19 F= -.12915472E+04 E0= -.12915364E+04  d E =-.100555E-01  mag=    31.9987
 curvature:  -1.05 expect dE=-0.321E-01 dE for cont linesearch -0.332E-06
 trial: gam= 0.84257 g(F)=  0.302E-01 g(S)=  0.325E-03 ort =-0.207E-03 (trialstep = 0.420E+00)
 search vector abs. value=  0.127E+00
 bond charge predicted
       N       E                     dE             d eps       ncg     rms          rms(c)
DAV:   1    -0.128219588867E+04    0.68050E-02   -0.51332E+00  2160   0.455E+00    0.667E-01
RMM:   2    -0.128221185455E+04   -0.15966E-01   -0.12292E-01  2612   0.659E-01    0.175E+00
RMM:   3    -0.128221376782E+04   -0.19133E-02   -0.18450E-02  2560   0.295E-01    0.272E+00
RMM:   4    -0.128220681266E+04    0.69552E-02   -0.92324E-03  2583   0.211E-01    0.790E-01
RMM:   5    -0.128220854780E+04   -0.17351E-02   -0.31664E-03  2393   0.130E-01    0.442E-01
RMM:   6    -0.128220920613E+04   -0.65833E-03   -0.13937E-03  2527   0.734E-02    0.578E-01
RMM:   7    -0.128220858487E+04    0.62126E-03   -0.76489E-04  2500   0.558E-02    0.229E-01
RMM:   8    -0.128220914794E+04   -0.56308E-03   -0.83023E-04  2428   0.570E-02    0.429E-01
RMM:   9    -0.128220882341E+04    0.32453E-03   -0.48687E-04  2442   0.452E-02    0.281E-01
RMM:  10    -0.128220879657E+04    0.26841E-04   -0.22618E-04  2298   0.317E-02    0.203E-01
RMM:  11    -0.128220878179E+04    0.14780E-04   -0.94603E-05  2178   0.197E-02    0.123E-01
RMM:  12    -0.128220880580E+04   -0.24010E-04   -0.55783E-05  2032   0.161E-02    0.603E-02
RMM:  13    -0.128220883476E+04   -0.28965E-04   -0.29682E-05  1904   0.119E-02    0.486E-02
RMM:  14    -0.128220884565E+04   -0.10885E-04   -0.15812E-05  1660   0.871E-03    0.429E-02
RMM:  15    -0.128220884676E+04   -0.11068E-05   -0.86706E-06  1561   0.661E-03    0.283E-02
RMM:  16    -0.128220884931E+04   -0.25585E-05   -0.33012E-06  1465   0.416E-03    0.170E-02
RMM:  17    -0.128220885237E+04   -0.30527E-05   -0.25935E-06  1449   0.352E-03    0.198E-02
RMM:  18    -0.128220885543E+04   -0.30591E-05   -0.22484E-06  1438   0.337E-03    0.219E-02
RMM:  19    -0.128220885810E+04   -0.26769E-05   -0.17148E-06  1392   0.288E-03    0.151E-02
RMM:  20    -0.128220886178E+04   -0.36791E-05   -0.89099E-07  1284   0.220E-03    0.764E-03
RMM:  21    -0.128220886524E+04   -0.34588E-05   -0.55683E-07  1215   0.163E-03    0.819E-03
RMM:  22    -0.128220886721E+04   -0.19730E-05   -0.48992E-07  1197   0.161E-03    0.646E-03
RMM:  23    -0.128220886992E+04   -0.27035E-05   -0.35949E-07  1161   0.128E-03    0.384E-03
RMM:  24    -0.128220887209E+04   -0.21728E-05   -0.31900E-07  1142   0.117E-03    0.367E-03
RMM:  25    -0.128220887392E+04   -0.18338E-05   -0.20672E-07  1109   0.910E-04    0.219E-03
RMM:  26    -0.128220887524E+04   -0.13148E-05   -0.15658E-07  1041   0.776E-04    0.295E-03
RMM:  27    -0.128220887598E+04   -0.73975E-06   -0.12356E-07   959   0.717E-04
  20 F= -.12915551E+04 E0= -.12915442E+04  d E =-.791369E-02  mag=    31.9987
 trial-energy change:   -0.007914  1 .order   -0.007891   -0.012743   -0.003039
 step:   0.5496(harm=  0.5520)  dis= 0.01742  next Energy= -1291.555540 (dE=-0.838E-02)
 bond charge predicted
       N       E                     dE             d eps       ncg     rms          rms(c)
DAV:   1    -0.128220758694E+04    0.12883E-02   -0.48564E-01  2184   0.140E+00    0.203E-01
RMM:   2    -0.128220906775E+04   -0.14808E-02   -0.11610E-02  2603   0.203E-01    0.642E-01
RMM:   3    -0.128220888751E+04    0.18024E-03   -0.17161E-03  2572   0.904E-02    0.643E-01
RMM:   4    -0.128220865195E+04    0.23556E-03   -0.76732E-04  2561   0.618E-02    0.228E-01
RMM:   5    -0.128220872879E+04   -0.76841E-04   -0.21073E-04  2312   0.323E-02    0.112E-01
RMM:   6    -0.128220881837E+04   -0.89578E-04   -0.12431E-04  2321   0.217E-02    0.155E-01
RMM:   7    -0.128220876902E+04    0.49357E-04   -0.76739E-05  2345   0.180E-02    0.772E-02
RMM:   8    -0.128220883118E+04   -0.62161E-04   -0.81832E-05  2153   0.179E-02    0.128E-01
RMM:   9    -0.128220879605E+04    0.35124E-04   -0.41558E-05  2063   0.133E-02    0.460E-02
RMM:  10    -0.128220880396E+04   -0.79056E-05   -0.17549E-05  1707   0.886E-03    0.444E-02
RMM:  11    -0.128220880432E+04   -0.36274E-06   -0.66052E-06  1543   0.532E-03
  21 F= -.12915555E+04 E0= -.12915446E+04  d E =-.837529E-02  mag=    31.9987
 curvature:  -1.15 expect dE=-0.319E-01 dE for cont linesearch -0.319E-06
 trial: gam= 0.89487 g(F)=  0.276E-01 g(S)=  0.919E-04 ort = 0.187E-03 (trialstep = 0.437E+00)
 search vector abs. value=  0.129E+00
 bond charge predicted
       N       E                     dE             d eps       ncg     rms          rms(c)
DAV:   1    -0.128220062628E+04    0.81777E-02   -0.59063E+00  2160   0.493E+00    0.647E-01
RMM:   2    -0.128221474914E+04   -0.14123E-01   -0.13608E-01  2641   0.682E-01    0.112E+00
RMM:   3    -0.128222866480E+04   -0.13916E-01   -0.19168E-02  2575   0.294E-01    0.412E+00
RMM:   4    -0.128220813090E+04    0.20534E-01   -0.12221E-02  2523   0.244E-01    0.859E-01
RMM:   5    -0.128221434973E+04   -0.62188E-02   -0.44522E-03  2380   0.158E-01    0.403E-01
RMM:   6    -0.128221551393E+04   -0.11642E-02   -0.14681E-03  2488   0.797E-02    0.558E-01
RMM:   7    -0.128221503270E+04    0.48123E-03   -0.75466E-04  2515   0.563E-02    0.294E-01
RMM:   8    -0.128221554078E+04   -0.50807E-03   -0.91576E-04  2429   0.596E-02    0.402E-01
RMM:   9    -0.128221526009E+04    0.28069E-03   -0.51895E-04  2437   0.477E-02    0.253E-01
RMM:  10    -0.128221527057E+04   -0.10477E-04   -0.23963E-04  2278   0.318E-02    0.240E-01
RMM:  11    -0.128221522124E+04    0.49328E-04   -0.88666E-05  2178   0.191E-02    0.168E-01
RMM:  12    -0.128221522407E+04   -0.28342E-05   -0.51126E-05  2021   0.147E-02    0.786E-02
RMM:  13    -0.128221525766E+04   -0.33584E-04   -0.27699E-05  1916   0.114E-02    0.369E-02
RMM:  14    -0.128221528542E+04   -0.27760E-04   -0.20217E-05  1749   0.986E-03    0.532E-02
RMM:  15    -0.128221528519E+04    0.22323E-06   -0.11838E-05  1590   0.786E-03    0.276E-02
RMM:  16    -0.128221528853E+04   -0.33386E-05   -0.44934E-06  1499   0.485E-03    0.203E-02
RMM:  17    -0.128221529012E+04   -0.15865E-05   -0.29807E-06  1435   0.378E-03    0.154E-02
RMM:  18    -0.128221529255E+04   -0.24278E-05   -0.18283E-06  1401   0.307E-03    0.127E-02
RMM:  19    -0.128221529515E+04   -0.25993E-05   -0.13704E-06  1369   0.255E-03    0.125E-02
RMM:  20    -0.128221529778E+04   -0.26368E-05   -0.77749E-07  1285   0.213E-03    0.718E-03
RMM:  21    -0.128221530022E+04   -0.24310E-05   -0.46675E-07  1215   0.153E-03    0.616E-03
RMM:  22    -0.128221530194E+04   -0.17203E-05   -0.36024E-07  1169   0.134E-03    0.696E-03
RMM:  23    -0.128221530381E+04   -0.18740E-05   -0.27201E-07  1145   0.114E-03    0.352E-03
RMM:  24    -0.128221530597E+04   -0.21643E-05   -0.19962E-07  1127   0.915E-04    0.306E-03
RMM:  25    -0.128221530756E+04   -0.15866E-05   -0.15129E-07  1094   0.825E-04    0.259E-03
RMM:  26    -0.128221530907E+04   -0.15081E-05   -0.13653E-07  1016   0.714E-04    0.311E-03
RMM:  27    -0.128221530989E+04   -0.82254E-06   -0.10421E-07   935   0.684E-04
  22 F= -.12915635E+04 E0= -.12915527E+04  d E =-.791928E-02  mag=    31.9986
 trial-energy change:   -0.007919  1 .order   -0.007922   -0.012156   -0.003687
 step:   0.6268(harm=  0.6268)  dis= 0.01974  next Energy= -1291.564258 (dE=-0.872E-02)
 bond charge predicted
       N       E                     dE             d eps       ncg     rms          rms(c)
DAV:   1    -0.128221272664E+04    0.25824E-02   -0.11198E+00  2160   0.215E+00    0.281E-01
RMM:   2    -0.128221527646E+04   -0.25498E-02   -0.25652E-02  2640   0.296E-01    0.525E-01
RMM:   3    -0.128221749007E+04   -0.22136E-02   -0.35946E-03  2585   0.127E-01    0.154E+00
RMM:   4    -0.128221432469E+04    0.31654E-02   -0.20480E-03  2537   0.100E-01    0.363E-01
RMM:   5    -0.128221525409E+04   -0.92940E-03   -0.68516E-04  2348   0.614E-02    0.159E-01
RMM:   6    -0.128221548115E+04   -0.22707E-03   -0.25440E-04  2429   0.326E-02    0.213E-01
RMM:   7    -0.128221541628E+04    0.64874E-04   -0.14618E-04  2476   0.246E-02    0.120E-01
RMM:   8    -0.128221553984E+04   -0.12356E-03   -0.17905E-04  2309   0.260E-02    0.198E-01
RMM:   9    -0.128221546301E+04    0.76836E-04   -0.99020E-05  2275   0.207E-02    0.893E-02
RMM:  10    -0.128221547874E+04   -0.15729E-04   -0.39817E-05  1963   0.131E-02    0.896E-02
RMM:  11    -0.128221547161E+04    0.71287E-05   -0.15598E-05  1667   0.804E-03    0.613E-02
RMM:  12    -0.128221547443E+04   -0.28224E-05   -0.91981E-06  1574   0.674E-03    0.240E-02
RMM:  13    -0.128221548312E+04   -0.86860E-05   -0.41314E-06  1504   0.475E-03    0.175E-02
RMM:  14    -0.128221548721E+04   -0.40960E-05   -0.32239E-06  1469   0.423E-03    0.214E-02
RMM:  15    -0.128221548729E+04   -0.78522E-07   -0.15735E-06  1388   0.316E-03
  23 F= -.12915642E+04 E0= -.12915536E+04  d E =-.871238E-02  mag=    31.9986
 curvature:  -1.46 expect dE=-0.280E-01 dE for cont linesearch -0.160E-07
 trial: gam= 0.70854 g(F)=  0.190E-01 g(S)=  0.139E-03 ort =-0.377E-04 (trialstep = 0.475E+00)
 search vector abs. value=  0.841E-01
 bond charge predicted
       N       E                     dE             d eps       ncg     rms          rms(c)
DAV:   1    -0.128220832547E+04    0.71617E-02   -0.45034E+00  2160   0.437E+00    0.564E-01
[...]
  54 F= -.12916171E+04 E0= -.12916063E+04  d E =-.124730E-02  mag=    31.9989
 trial-energy change:   -0.001247  1 .order   -0.001246   -0.001692   -0.000801
 step:   0.8066(harm=  0.8066)  dis= 0.00770  next Energy= -1291.617478 (dE=-0.161E-02)
 bond charge predicted
       N       E                     dE             d eps       ncg     rms          rms(c)
DAV:   1    -0.128224841381E+04    0.15777E-02   -0.62512E-01  2160   0.164E+00    0.184E-01
RMM:   2    -0.128224957854E+04   -0.11647E-02   -0.13140E-02  2524   0.212E-01    0.180E-01
RMM:   3    -0.128225078315E+04   -0.12046E-02   -0.16085E-03  2410   0.970E-02    0.982E-01
RMM:   4    -0.128224924687E+04    0.15363E-02   -0.89364E-04  2672   0.631E-02    0.246E-01
RMM:   5    -0.128224969115E+04   -0.44429E-03   -0.33330E-04  2324   0.432E-02    0.107E-01
RMM:   6    -0.128224978751E+04   -0.96353E-04   -0.11348E-04  2362   0.213E-02    0.138E-01
RMM:   7    -0.128224976034E+04    0.27170E-04   -0.67600E-05  2332   0.173E-02    0.827E-02
RMM:   8    -0.128224980323E+04   -0.42888E-04   -0.78701E-05  2266   0.175E-02    0.956E-02
RMM:   9    -0.128224980300E+04    0.22975E-06   -0.51208E-05  2096   0.147E-02    0.778E-02
RMM:  10    -0.128224979389E+04    0.91113E-05   -0.25576E-05  1812   0.107E-02    0.455E-02
RMM:  11    -0.128224979750E+04   -0.36182E-05   -0.64398E-06  1551   0.570E-03    0.313E-02
RMM:  12    -0.128224979969E+04   -0.21905E-05   -0.34932E-06  1490   0.437E-03    0.149E-02
RMM:  13    -0.128224980424E+04   -0.45453E-05   -0.15418E-06  1405   0.292E-03    0.126E-02
RMM:  14    -0.128224980537E+04   -0.11266E-05   -0.79233E-07  1308   0.225E-03    0.837E-03
RMM:  15    -0.128224980619E+04   -0.82321E-06   -0.30848E-07  1255   0.139E-03
  55 F= -.12916175E+04 E0= -.12916067E+04  d E =-.161066E-02  mag=    31.9989
 curvature:  -1.78 expect dE=-0.104E-01 dE for cont linesearch -0.219E-07
 trial: gam= 1.43690 g(F)=  0.586E-02 g(S)=  0.166E-04 ort = 0.147E-04 (trialstep = 0.209E+00)
 search vector abs. value=  0.422E-01
 bond charge predicted
       N       E                     dE             d eps       ncg     rms          rms(c)
DAV:   1    -0.128224945581E+04    0.34956E-03   -0.44857E-01  2160   0.139E+00    0.150E-01
RMM:   2    -0.128225026116E+04   -0.80536E-03   -0.92797E-03  2469   0.177E-01    0.128E-01
RMM:   3    -0.128225106790E+04   -0.80673E-03   -0.10734E-03  2385   0.810E-02    0.795E-01
RMM:   4    -0.128224999769E+04    0.10702E-02   -0.58631E-04  2653   0.508E-02    0.147E-01
RMM:   5    -0.128225035219E+04   -0.35450E-03   -0.18720E-04  2263   0.328E-02    0.907E-02
RMM:   6    -0.128225041923E+04   -0.67038E-04   -0.63912E-05  2274   0.166E-02    0.112E-01
RMM:   7    -0.128225040958E+04    0.96505E-05   -0.42911E-05  2110   0.139E-02    0.843E-02
RMM:   8    -0.128225043067E+04   -0.21087E-04   -0.44512E-05  2138   0.135E-02    0.658E-02
RMM:   9    -0.128225043724E+04   -0.65724E-05   -0.29017E-05  1961   0.114E-02    0.712E-02
RMM:  10    -0.128225043113E+04    0.61107E-05   -0.14915E-05  1671   0.826E-03    0.481E-02
RMM:  11    -0.128225043353E+04   -0.24010E-05   -0.47728E-06  1513   0.518E-03    0.298E-02
RMM:  12    -0.128225043628E+04   -0.27523E-05   -0.24158E-06  1438   0.358E-03    0.134E-02
RMM:  13    -0.128225044050E+04   -0.42144E-05   -0.13385E-06  1367   0.279E-03    0.118E-02
RMM:  14    -0.128225044171E+04   -0.12088E-05   -0.73768E-07  1293   0.212E-03    0.812E-03
RMM:  15    -0.128225044257E+04   -0.86214E-06   -0.29433E-07  1245   0.140E-03
  56 F= -.12916185E+04 E0= -.12916077E+04  d E =-.105462E-02  mag=    31.9989
 trial-energy change:   -0.001055  1 .order   -0.001053   -0.001230   -0.000876
 step:   0.7254(harm=  0.7254)  dis= 0.01157  next Energy= -1291.619620 (dE=-0.214E-02)
 bond charge predicted
       N       E                     dE             d eps       ncg     rms          rms(c)
DAV:   1    -0.128224447375E+04    0.59680E-02   -0.27492E+00  2160   0.343E+00    0.374E-01
RMM:   2    -0.128224964648E+04   -0.51727E-02   -0.57125E-02  2472   0.439E-01    0.283E-01
RMM:   3    -0.128225340140E+04   -0.37549E-02   -0.62223E-03  2394   0.195E-01    0.174E+00
RMM:   4    -0.128224884629E+04    0.45551E-02   -0.31653E-03  2735   0.114E-01    0.370E-01
RMM:   5    -0.128225025944E+04   -0.14132E-02   -0.11019E-03  2386   0.779E-02    0.208E-01
RMM:   6    -0.128225046259E+04   -0.20315E-03   -0.35116E-04  2536   0.372E-02    0.274E-01
RMM:   7    -0.128225038558E+04    0.77015E-04   -0.23934E-04  2435   0.309E-02    0.200E-01
RMM:   8    -0.128225048362E+04   -0.98046E-04   -0.28256E-04  2408   0.340E-02    0.180E-01
RMM:   9    -0.128225048418E+04   -0.55878E-06   -0.19006E-04  2406   0.280E-02    0.168E-01
RMM:  10    -0.128225044370E+04    0.40488E-04   -0.93182E-05  2213   0.201E-02    0.994E-02
RMM:  11    -0.128225045065E+04   -0.69591E-05   -0.27973E-05  1859   0.113E-02    0.663E-02
RMM:  12    -0.128225045564E+04   -0.49802E-05   -0.12527E-05  1582   0.753E-03    0.327E-02
RMM:  13    -0.128225046723E+04   -0.11592E-04   -0.77128E-06  1575   0.634E-03    0.254E-02
RMM:  14    -0.128225047162E+04   -0.43964E-05   -0.39892E-06  1491   0.463E-03    0.194E-02
RMM:  15    -0.128225047502E+04   -0.33993E-05   -0.18318E-06  1420   0.333E-03    0.114E-02
RMM:  16    -0.128225047691E+04   -0.18876E-05   -0.67595E-07  1300   0.203E-03    0.808E-03
RMM:  17    -0.128225047872E+04   -0.18069E-05   -0.44971E-07  1261   0.158E-03    0.796E-03
RMM:  18    -0.128225048099E+04   -0.22738E-05   -0.40650E-07  1228   0.142E-03    0.882E-03
RMM:  19    -0.128225048459E+04   -0.36015E-05   -0.44771E-07  1215   0.154E-03    0.562E-03
RMM:  20    -0.128225048929E+04   -0.46962E-05   -0.33579E-07  1225   0.132E-03    0.447E-03
RMM:  21    -0.128225049211E+04   -0.28223E-05   -0.26329E-07  1170   0.115E-03    0.427E-03
RMM:  22    -0.128225049358E+04   -0.14731E-05   -0.19224E-07  1097   0.969E-04    0.291E-03
RMM:  23    -0.128225049583E+04   -0.22513E-05   -0.11213E-07  1059   0.705E-04    0.153E-03
RMM:  24    -0.128225049764E+04   -0.18058E-05   -0.76105E-08   922   0.553E-04    0.161E-03
RMM:  25    -0.128225049892E+04   -0.12746E-05   -0.56730E-08   819   0.492E-04    0.171E-03
RMM:  26    -0.128225050046E+04   -0.15478E-05   -0.47255E-08   816   0.444E-04    0.944E-04
RMM:  27    -0.128225050251E+04   -0.20490E-05   -0.50899E-08   859   0.407E-04    0.678E-04
RMM:  28    -0.128225050399E+04   -0.14762E-05   -0.46657E-08   860   0.391E-04    0.688E-04
RMM:  29    -0.128225050544E+04   -0.14520E-05   -0.43464E-08   780   0.368E-04    0.587E-04
RMM:  30    -0.128225050674E+04   -0.13043E-05   -0.44838E-08   799   0.370E-04    0.277E-04
RMM:  31    -0.128225050827E+04   -0.15284E-05   -0.58252E-08   825   0.365E-04    0.178E-04
RMM:  32    -0.128225050907E+04   -0.80079E-06   -0.45453E-08   783   0.372E-04
  57 F= -.12916196E+04 E0= -.12916088E+04  d E =-.215643E-02  mag=    31.9988
 curvature:  -2.60 expect dE=-0.149E-01 dE for cont linesearch -0.402E-06
 trial: gam= 0.97848 g(F)=  0.569E-02 g(S)=  0.637E-04 ort = 0.808E-04 (trialstep = 0.284E+00)
 search vector abs. value=  0.463E-01
 bond charge predicted
       N       E                     dE             d eps       ncg     rms          rms(c)
DAV:   1    -0.128224945386E+04    0.10544E-02   -0.92592E-01  2196   0.199E+00    0.211E-01
RMM:   2    -0.128225116584E+04   -0.17120E-02   -0.18988E-02  2430   0.253E-01    0.175E-01
RMM:   3    -0.128225249014E+04   -0.13243E-02   -0.21779E-03  2348   0.119E-01    0.984E-01
RMM:   4    -0.128225091961E+04    0.15705E-02   -0.10986E-03  2733   0.675E-02    0.238E-01
RMM:   5    -0.128225136767E+04   -0.44806E-03   -0.38089E-04  2327   0.462E-02    0.103E-01
RMM:   6    -0.128225145194E+04   -0.84268E-04   -0.11099E-04  2444   0.210E-02    0.136E-01
RMM:   7    -0.128225144625E+04    0.56941E-05   -0.82359E-05  2289   0.183E-02    0.127E-01
RMM:   8    -0.128225147533E+04   -0.29087E-04   -0.96823E-05  2346   0.197E-02    0.101E-01
RMM:   9    -0.128225148491E+04   -0.95748E-05   -0.64728E-05  2182   0.168E-02    0.926E-02
RMM:  10    -0.128225146887E+04    0.16043E-04   -0.28278E-05  1893   0.115E-02    0.512E-02
RMM:  11    -0.128225147358E+04   -0.47130E-05   -0.92683E-06  1570   0.649E-03    0.395E-02
RMM:  12    -0.128225147500E+04   -0.14160E-05   -0.43028E-06  1510   0.479E-03    0.142E-02
RMM:  13    -0.128225147954E+04   -0.45476E-05   -0.25954E-06  1450   0.367E-03    0.184E-02
RMM:  14    -0.128225148054E+04   -0.99953E-06   -0.15185E-06  1401   0.298E-03
  58 F= -.12916210E+04 E0= -.12916101E+04  d E =-.131607E-02  mag=    31.9988
 trial-energy change:   -0.001316  1 .order   -0.001320   -0.001657   -0.000984
 step:   0.7476(harm=  0.6997)  dis= 0.01283  next Energy= -1291.621738 (dE=-0.210E-02)
 bond charge predicted
       N       E                     dE             d eps       ncg     rms          rms(c)
DAV:   1    -0.128224624748E+04    0.52321E-02   -0.24586E+00  2160   0.324E+00    0.346E-01
RMM:   2    -0.128225091087E+04   -0.46634E-02   -0.50578E-02  2427   0.414E-01    0.262E-01
RMM:   3    -0.128225331282E+04   -0.24020E-02   -0.55548E-03  2353   0.189E-01    0.120E+00
RMM:   4    -0.128225112622E+04    0.21866E-02   -0.24621E-03  2781   0.967E-02    0.487E-01
RMM:   5    -0.128225147250E+04   -0.34628E-03   -0.88343E-04  2371   0.694E-02    0.168E-01
RMM:   6    -0.128225161635E+04   -0.14385E-03   -0.28433E-04  2513   0.327E-02    0.221E-01
RMM:   7    -0.128225158567E+04    0.30679E-04   -0.21376E-04  2459   0.291E-02    0.198E-01
RMM:   8    -0.128225165325E+04   -0.67583E-04   -0.26412E-04  2435   0.328E-02    0.162E-01
RMM:   9    -0.128225167737E+04   -0.24117E-04   -0.17902E-04  2390   0.276E-02    0.151E-01
RMM:  10    -0.128225162707E+04    0.50305E-04   -0.77619E-05  2139   0.186E-02    0.584E-02
RMM:  11    -0.128225164185E+04   -0.14787E-04   -0.25325E-05  1807   0.103E-02    0.555E-02
RMM:  12    -0.128225164224E+04   -0.38677E-06   -0.12122E-05  1590   0.741E-03    0.277E-02
RMM:  13    -0.128225164942E+04   -0.71829E-05   -0.81461E-06  1577   0.619E-03    0.277E-02
RMM:  14    -0.128225165340E+04   -0.39784E-05   -0.44434E-06  1513   0.464E-03    0.211E-02
RMM:  15    -0.128225165578E+04   -0.23799E-05   -0.21000E-06  1431   0.344E-03    0.128E-02
RMM:  16    -0.128225165654E+04   -0.76360E-06   -0.69563E-07  1302   0.201E-03
  59 F= -.12916217E+04 E0= -.12916107E+04  d E =-.205279E-02  mag=    31.9988
 curvature:  -2.74 expect dE=-0.191E-01 dE for cont linesearch -0.567E-05
 trial: gam= 1.26676 g(F)=  0.691E-02 g(S)=  0.548E-04 ort =-0.309E-03 (trialstep = 0.217E+00)
 search vector abs. value=  0.805E-01
 bond charge predicted
       N       E                     dE             d eps       ncg     rms          rms(c)
DAV:   1    -0.128225047782E+04    0.11780E-02   -0.94435E-01  2160   0.201E+00    0.207E-01
RMM:   2    -0.128225226775E+04   -0.17899E-02   -0.19271E-02  2404   0.255E-01    0.212E-01
RMM:   3    -0.128225372301E+04   -0.14553E-02   -0.23020E-03  2328   0.122E-01    0.108E+00
RMM:   4    -0.128225194748E+04    0.17755E-02   -0.12376E-03  2721   0.723E-02    0.290E-01
RMM:   5    -0.128225242958E+04   -0.48210E-03   -0.45244E-04  2351   0.506E-02    0.962E-02
RMM:   6    -0.128225253522E+04   -0.10565E-03   -0.12192E-04  2450   0.220E-02    0.146E-01
RMM:   7    -0.128225252010E+04    0.15123E-04   -0.81684E-05  2309   0.180E-02    0.118E-01
RMM:   8    -0.128225255947E+04   -0.39372E-04   -0.10360E-04  2296   0.207E-02    0.100E-01
RMM:   9    -0.128225257053E+04   -0.11052E-04   -0.64727E-05  2170   0.166E-02    0.952E-02
RMM:  10    -0.128225255464E+04    0.15883E-04   -0.28507E-05  1887   0.116E-02    0.479E-02
RMM:  11    -0.128225255965E+04   -0.50048E-05   -0.98259E-06  1586   0.661E-03    0.363E-02
RMM:  12    -0.128225256241E+04   -0.27641E-05   -0.48677E-06  1524   0.497E-03    0.183E-02
RMM:  13    -0.128225256804E+04   -0.56289E-05   -0.36134E-06  1464   0.419E-03    0.200E-02
RMM:  14    -0.128225256972E+04   -0.16814E-05   -0.19259E-06  1404   0.333E-03    0.147E-02
RMM:  15    -0.128225257083E+04   -0.11089E-05   -0.89189E-07  1331   0.228E-03    0.879E-03
RMM:  16    -0.128225257129E+04   -0.45724E-06   -0.33799E-07  1245   0.143E-03
  60 F= -.12916229E+04 E0= -.12916119E+04  d E =-.117628E-02  mag=    31.9988
 trial-energy change:   -0.001176  1 .order   -0.001158   -0.001425   -0.000892
 step:   0.4698(harm=  0.5798)  dis= 0.01033  next Energy= -1291.623416 (dE=-0.172E-02)
 bond charge predicted
       N       E                     dE             d eps       ncg     rms          rms(c)
DAV:   1    -0.128225011138E+04    0.24594E-02   -0.12840E+00  2160   0.234E+00    0.242E-01
RMM:   2    -0.128225254512E+04   -0.24337E-02   -0.26193E-02  2405   0.297E-01    0.233E-01
RMM:   3    -0.128225454045E+04   -0.19953E-02   -0.30984E-03  2323   0.142E-01    0.127E+00
RMM:   4    -0.128225210307E+04    0.24374E-02   -0.16626E-03  2731   0.839E-02    0.317E-01
RMM:   5    -0.128225277037E+04   -0.66730E-03   -0.59396E-04  2372   0.579E-02    0.118E-01
RMM:   6    -0.128225291765E+04   -0.14728E-03   -0.17292E-04  2481   0.262E-02    0.183E-01
RMM:   7    -0.128225287519E+04    0.42463E-04   -0.11215E-04  2401   0.214E-02    0.120E-01
RMM:   8    -0.128225293479E+04   -0.59602E-04   -0.13896E-04  2369   0.240E-02    0.113E-01
RMM:   9    -0.128225295069E+04   -0.15899E-04   -0.91226E-05  2312   0.195E-02    0.116E-01
RMM:  10    -0.128225292289E+04    0.27798E-04   -0.40376E-05  1976   0.137E-02    0.616E-02
RMM:  11    -0.128225292850E+04   -0.56081E-05   -0.13966E-05  1638   0.773E-03    0.465E-02
RMM:  12    -0.128225293034E+04   -0.18465E-05   -0.64057E-06  1548   0.574E-03    0.189E-02
RMM:  13    -0.128225293697E+04   -0.66242E-05   -0.47761E-06  1496   0.479E-03    0.208E-02
RMM:  14    -0.128225293927E+04   -0.22986E-05   -0.26528E-06  1451   0.385E-03    0.175E-02
RMM:  15    -0.128225294039E+04   -0.11222E-05   -0.12827E-06  1375   0.272E-03    0.101E-02
RMM:  16    -0.128225294087E+04   -0.47982E-06   -0.40136E-07  1250   0.160E-03
  61 F= -.12916235E+04 E0= -.12916126E+04  d E =-.185072E-02  mag=    31.9988
 curvature:  -3.23 expect dE=-0.134E-01 dE for cont linesearch -0.579E-04
 ZBRENT: extrapolating
 opt :   0.5744  next Energy= -1291.623605 (dE=-0.191E-02)
 bond charge predicted
       N       E                     dE             d eps       ncg     rms          rms(c)
DAV:   1    -0.128225239794E+04    0.54245E-03   -0.21932E-01  2184   0.968E-01    0.100E-01
RMM:   2    -0.128225279296E+04   -0.39503E-03   -0.44679E-03  2408   0.123E-01    0.912E-02
RMM:   3    -0.128225311570E+04   -0.32274E-03   -0.51906E-04  2323   0.580E-02    0.474E-01
RMM:   4    -0.128225271581E+04    0.39989E-03   -0.26156E-04  2635   0.332E-02    0.121E-01
RMM:   5    -0.128225284380E+04   -0.12798E-03   -0.90982E-05  2154   0.231E-02    0.480E-02
RMM:   6    -0.128225287206E+04   -0.28266E-04   -0.26458E-05  2080   0.106E-02    0.685E-02
RMM:   7    -0.128225287133E+04    0.73416E-06   -0.18914E-05  1843   0.907E-03    0.599E-02
RMM:   8    -0.128225288249E+04   -0.11166E-04   -0.23832E-05  1973   0.101E-02    0.464E-02
RMM:   9    -0.128225288740E+04   -0.49084E-05   -0.14364E-05  1724   0.813E-03    0.442E-02
RMM:  10    -0.128225288411E+04    0.32945E-05   -0.62464E-06  1537   0.571E-03    0.241E-02
RMM:  11    -0.128225288575E+04   -0.16381E-05   -0.24565E-06  1439   0.361E-03    0.181E-02
RMM:  12    -0.128225288721E+04   -0.14670E-05   -0.13259E-06  1360   0.276E-03    0.859E-03
RMM:  13    -0.128225288932E+04   -0.21069E-05   -0.10246E-06  1312   0.234E-03    0.891E-03
RMM:  14    -0.128225289015E+04   -0.82576E-06   -0.53551E-07  1260   0.187E-03
  62 F= -.12916236E+04 E0= -.12916126E+04  d E =-.192581E-02  mag=    31.9988
 curvature:  -3.50 expect dE=-0.193E-01 dE for cont linesearch -0.161E-06
 trial: gam= 0.68239 g(F)=  0.541E-02 g(S)=  0.103E-03 ort = 0.609E-04 (trialstep = 0.288E+00)
 search vector abs. value=  0.431E-01
 bond charge predicted
       N       E                     dE             d eps       ncg     rms          rms(c)
DAV:   1    -0.128225157702E+04    0.13123E-02   -0.88772E-01  2160   0.196E+00    0.213E-01
RMM:   2    -0.128225325037E+04   -0.16734E-02   -0.18520E-02  2437   0.251E-01    0.190E-01
RMM:   3    -0.128225416439E+04   -0.91402E-03   -0.22214E-03  2329   0.121E-01    0.714E-01
RMM:   4    -0.128225343058E+04    0.73381E-03   -0.98591E-04  2745   0.627E-02    0.427E-01
RMM:   5    -0.128225337163E+04    0.58951E-04   -0.39355E-04  2350   0.464E-02    0.112E-01
RMM:   6    -0.128225349652E+04   -0.12489E-03   -0.14199E-04  2382   0.234E-02    0.166E-01
RMM:   7    -0.128225346074E+04    0.35782E-04   -0.87475E-05  2385   0.190E-02    0.940E-02
RMM:   8    -0.128225349563E+04   -0.34886E-04   -0.95730E-05  2335   0.201E-02    0.789E-02
RMM:   9    -0.128225351769E+04   -0.22064E-04   -0.63689E-05  2248   0.163E-02    0.970E-02
RMM:  10    -0.128225349967E+04    0.18019E-04   -0.29221E-05  1897   0.112E-02    0.356E-02
RMM:  11    -0.128225350533E+04   -0.56554E-05   -0.94840E-06  1590   0.661E-03    0.261E-02
RMM:  12    -0.128225350627E+04   -0.94016E-06   -0.38474E-06  1501   0.441E-03
  63 F= -.12916248E+04 E0= -.12916139E+04  d E =-.121394E-02  mag=    31.9988
 trial-energy change:   -0.001214  1 .order   -0.001226   -0.001603   -0.000850
 step:   0.7227(harm=  0.6143)  dis= 0.01136  next Energy= -1291.625429 (dE=-0.181E-02)
 bond charge predicted
       N       E                     dE             d eps       ncg     rms          rms(c)
DAV:   1    -0.128224862983E+04    0.48755E-02   -0.20134E+00  2160   0.295E+00    0.321E-01
RMM:   2    -0.128225252287E+04   -0.38930E-02   -0.42135E-02  2443   0.378E-01    0.315E-01
RMM:   3    -0.128225569952E+04   -0.31766E-02   -0.51863E-03  2323   0.185E-01    0.161E+00
RMM:   4    -0.128225200152E+04    0.36980E-02   -0.27758E-03  2737   0.108E-01    0.501E-01
RMM:   5    -0.128225281446E+04   -0.81294E-03   -0.11134E-03  2394   0.787E-02    0.164E-01
RMM:   6    -0.128225302993E+04   -0.21548E-03   -0.31914E-04  2510   0.354E-02    0.247E-01
RMM:   7    -0.128225294205E+04    0.87885E-04   -0.20311E-04  2501   0.282E-02    0.151E-01
RMM:   8    -0.128225300785E+04   -0.65799E-04   -0.21268E-04  2421   0.299E-02    0.139E-01
RMM:   9    -0.128225305868E+04   -0.50832E-04   -0.15767E-04  2387   0.245E-02    0.171E-01
RMM:  10    -0.128225300211E+04    0.56563E-04   -0.78254E-05  2149   0.189E-02    0.634E-02
RMM:  11    -0.128225301147E+04   -0.93545E-05   -0.19351E-05  1738   0.932E-03    0.413E-02
RMM:  12    -0.128225301438E+04   -0.29109E-05   -0.75379E-06  1562   0.583E-03    0.316E-02
RMM:  13    -0.128225301762E+04   -0.32360E-05   -0.55744E-06  1533   0.521E-03    0.216E-02
RMM:  14    -0.128225302415E+04   -0.65363E-05   -0.52332E-06  1515   0.507E-03    0.194E-02
RMM:  15    -0.128225302827E+04   -0.41223E-05   -0.32422E-06  1477   0.428E-03    0.193E-02
RMM:  16    -0.128225302844E+04   -0.16059E-06   -0.15354E-06  1393   0.290E-03
  64 F= -.12916253E+04 E0= -.12916142E+04  d E =-.163692E-02  mag=    31.9987
 curvature:  -2.12 expect dE=-0.153E-01 dE for cont linesearch -0.452E-04
 ZBRENT: interpolating
 opt :   0.6161  next Energy= -1291.625306 (dE=-0.169E-02)
 bond charge predicted
       N       E                     dE             d eps       ncg     rms          rms(c)
DAV:   1    -0.128225304316E+04   -0.14887E-04   -0.12131E-01  2232   0.725E-01    0.784E-02
RMM:   2    -0.128225327192E+04   -0.22875E-03   -0.25246E-03  2413   0.932E-02    0.900E-02
RMM:   3    -0.128225336651E+04   -0.94594E-04   -0.32150E-04  2321   0.456E-02    0.193E-01
RMM:   4    -0.128225329524E+04    0.71268E-04   -0.12370E-04  2599   0.226E-02    0.100E-01
RMM:   5    -0.128225329992E+04   -0.46828E-05   -0.29964E-05  1974   0.122E-02    0.814E-02
RMM:   6    -0.128225330445E+04   -0.45227E-05   -0.17349E-05  1772   0.857E-03    0.669E-02
