       N       E                     dE             d eps       ncg     rms          rms(c)
DAV:   1     0.904156866659E+04    0.90416E+04   -0.36401E+05  2172   0.137E+03
DAV:   2     0.771379628828E+03   -0.82702E+04   -0.74492E+04  2532   0.427E+02
DAV:   3    -0.132569179143E+04   -0.20971E+04   -0.19915E+04  3588   0.213E+02
DAV:   4    -0.147907647795E+04   -0.15338E+03   -0.14310E+03  3360   0.654E+01
DAV:   5    -0.148695622708E+04   -0.78797E+01   -0.73639E+01  3588   0.142E+01    0.163E+02
RMM:   6    -0.202337676427E+04   -0.53642E+03   -0.36185E+03  2942   0.135E+02    0.536E+02
RMM:   7    -0.178747329151E+04    0.23590E+03   -0.26106E+02  2174   0.453E+01    0.336E+02
RMM:   8    -0.128551120432E+04    0.50196E+03   -0.56447E+02  2397   0.454E+01    0.845E+01
RMM:   9    -0.152258425909E+04   -0.23707E+03   -0.13264E+02  2405   0.218E+01    0.187E+02
RMM:  10    -0.146611103109E+04    0.56473E+02   -0.10669E+02  2227   0.247E+01    0.167E+02
RMM:  11    -0.131086517734E+04    0.15525E+03   -0.78328E+01  2283   0.190E+01    0.108E+02
RMM:  12    -0.133735315233E+04   -0.26488E+02   -0.87503E+01  2177   0.212E+01    0.142E+02
RMM:  13    -0.130013405708E+04    0.37219E+02   -0.43414E+01  2461   0.124E+01    0.103E+02
RMM:  14    -0.127328623847E+04    0.26848E+02   -0.23875E+01  2215   0.109E+01    0.799E+01
RMM:  15    -0.125890277368E+04    0.14383E+02   -0.12404E+01  2319   0.711E+00    0.706E+01
RMM:  16    -0.127892732341E+04   -0.20025E+02   -0.16138E+01  2332   0.776E+00    0.916E+01
RMM:  17    -0.128184485794E+04   -0.29175E+01   -0.15307E+01  2384   0.757E+00    0.963E+01
RMM:  18    -0.125866142361E+04    0.23183E+02   -0.11782E+01  2339   0.673E+00    0.525E+01
RMM:  19    -0.125371706605E+04    0.49444E+01   -0.64443E+00  2291   0.514E+00    0.453E+01
RMM:  20    -0.125491445716E+04   -0.11974E+01   -0.26572E+00  2289   0.322E+00    0.408E+01
RMM:  21    -0.125326885475E+04    0.16456E+01   -0.20039E+00  2280   0.295E+00    0.309E+01
RMM:  22    -0.125606271325E+04   -0.27939E+01   -0.12743E+00  2338   0.221E+00    0.354E+01
RMM:  23    -0.125571973282E+04    0.34298E+00   -0.98655E-01  2319   0.204E+00    0.299E+01
RMM:  24    -0.125627081170E+04   -0.55108E+00   -0.47966E-01  2230   0.145E+00    0.244E+01
RMM:  25    -0.125658094362E+04   -0.31013E+00   -0.31707E-01  2295   0.112E+00    0.243E+01
RMM:  26    -0.125690989114E+04   -0.32895E+00   -0.19223E-01  2218   0.939E-01    0.229E+01
RMM:  27    -0.125666516337E+04    0.24473E+00   -0.66958E-02  2292   0.519E-01    0.220E+01
RMM:  28    -0.125668713499E+04   -0.21972E-01   -0.16988E-01  2262   0.756E-01    0.230E+01
RMM:  29    -0.125717471143E+04   -0.48758E+00   -0.19118E-01  2254   0.891E-01    0.230E+01
RMM:  30    -0.125758189055E+04   -0.40718E+00   -0.13545E-01  2226   0.765E-01    0.233E+01
RMM:  31    -0.125759284266E+04   -0.10952E-01   -0.30030E-02  2363   0.344E-01    0.237E+01
RMM:  32    -0.125777110415E+04   -0.17826E+00   -0.40529E-02  2308   0.368E-01    0.245E+01
RMM:  33    -0.125781045988E+04   -0.39356E-01   -0.16264E-02  2293   0.248E-01    0.245E+01
RMM:  34    -0.125807609819E+04   -0.26564E+00   -0.28353E-02  2260   0.317E-01    0.241E+01
RMM:  35    -0.125829848342E+04   -0.22239E+00   -0.48437E-02  2313   0.414E-01    0.240E+01
RMM:  36    -0.125912771718E+04   -0.82923E+00   -0.22210E-01  2252   0.855E-01    0.242E+01
RMM:  37    -0.126009872265E+04   -0.97101E+00   -0.19746E-01  2284   0.853E-01    0.242E+01
RMM:  38    -0.126293814388E+04   -0.28394E+01   -0.85519E-01  2257   0.166E+00    0.267E+01
RMM:  39    -0.126369078772E+04   -0.75264E+00   -0.44272E-01  2420   0.121E+00    0.228E+01
RMM:  40    -0.126434195449E+04   -0.65117E+00   -0.23029E-01  2444   0.764E-01    0.219E+01
RMM:  41    -0.126510410197E+04   -0.76215E+00   -0.24213E-01  2381   0.846E-01    0.220E+01
RMM:  42    -0.126535334984E+04   -0.24925E+00   -0.17431E-01  2457   0.759E-01    0.229E+01
RMM:  43    -0.126534800155E+04    0.53483E-02   -0.37971E-02  2594   0.306E-01    0.233E+01
RMM:  44    -0.126603879913E+04   -0.69080E+00   -0.65283E-02  2229   0.466E-01    0.245E+01
RMM:  45    -0.126673707234E+04   -0.69827E+00   -0.69044E-02  2342   0.457E-01    0.271E+01
RMM:  46    -0.126661257970E+04    0.12449E+00   -0.37475E-02  2374   0.359E-01    0.248E+01
RMM:  47    -0.126715083759E+04   -0.53826E+00   -0.10030E-01  2268   0.505E-01    0.231E+01
RMM:  48    -0.126881699030E+04   -0.16662E+01   -0.37434E-01  2227   0.940E-01    0.247E+01
RMM:  49    -0.126937012426E+04   -0.55313E+00   -0.28462E-01  2326   0.894E-01    0.236E+01
RMM:  50    -0.126942078586E+04   -0.50662E-01   -0.10047E-01  2536   0.520E-01    0.240E+01
RMM:  51    -0.127139366682E+04   -0.19729E+01   -0.10501E+00  2169   0.173E+00    0.246E+01
RMM:  52    -0.127203061749E+04   -0.63695E+00   -0.47140E-01  2402   0.119E+00    0.233E+01
RMM:  53    -0.127240475719E+04   -0.37414E+00   -0.17653E-01  2796   0.573E-01    0.228E+01
RMM:  54    -0.127279250247E+04   -0.38775E+00   -0.11743E-01  2313   0.556E-01    0.223E+01
RMM:  55    -0.127282100633E+04   -0.28504E-01   -0.50053E-02  2512   0.345E-01    0.220E+01
RMM:  56    -0.127404768129E+04   -0.12267E+01   -0.65137E-01  2286   0.144E+00    0.295E+01
RMM:  57    -0.127322071785E+04    0.82696E+00   -0.23755E-01  2362   0.961E-01    0.242E+01
RMM:  58    -0.127312148785E+04    0.99230E-01   -0.11083E-01  2565   0.541E-01    0.220E+01
RMM:  59    -0.127342261251E+04   -0.30112E+00   -0.37224E-02  2408   0.331E-01    0.216E+01
RMM:  60    -0.127388942390E+04   -0.46681E+00   -0.21869E-01  2195   0.792E-01    0.162E+01
RMM:  61    -0.127751273111E+04   -0.36233E+01   -0.11136E+00  2222   0.191E+00    0.346E+01
RMM:  62    -0.127672706227E+04    0.78567E+00   -0.31132E-01  2353   0.119E+00    0.292E+01
RMM:  63    -0.127634627702E+04    0.38079E+00   -0.24775E-01  2362   0.924E-01    0.177E+01
RMM:  64    -0.127635910365E+04   -0.12827E-01   -0.19532E-01  2299   0.944E-01    0.151E+01
RMM:  65    -0.127683464729E+04   -0.47554E+00   -0.25985E-01  2252   0.825E-01    0.176E+01
RMM:  66    -0.127698558450E+04   -0.15094E+00   -0.17074E-01  2276   0.813E-01    0.175E+01
RMM:  67    -0.127742174146E+04   -0.43616E+00   -0.22959E-01  2353   0.827E-01    0.183E+01
RMM:  68    -0.127744903988E+04   -0.27298E-01   -0.72447E-02  2427   0.512E-01    0.178E+01
RMM:  69    -0.127762535573E+04   -0.17632E+00   -0.31626E-02  2580   0.299E-01    0.180E+01
RMM:  70    -0.127775527684E+04   -0.12992E+00   -0.35145E-02  2385   0.327E-01    0.181E+01
RMM:  71    -0.127883874296E+04   -0.10835E+01   -0.62379E-01  2216   0.141E+00    0.234E+01
RMM:  72    -0.127832915342E+04    0.50959E+00   -0.17449E-01  2291   0.831E-01    0.168E+01
RMM:  73    -0.127851915695E+04   -0.19000E+00   -0.66223E-02  2490   0.489E-01    0.168E+01
RMM:  74    -0.127872059013E+04   -0.20143E+00   -0.47669E-02  2515   0.333E-01    0.182E+01
RMM:  75    -0.127860135291E+04    0.11924E+00   -0.31066E-02  2462   0.317E-01    0.179E+01
RMM:  76    -0.127782458647E+04    0.77677E+00   -0.85099E-01  2209   0.176E+00    0.234E+01
RMM:  77    -0.127778130160E+04    0.43285E-01   -0.16829E-01  2287   0.912E-01    0.184E+01
RMM:  78    -0.127793842815E+04   -0.15713E+00   -0.72178E-02  2255   0.504E-01    0.169E+01
RMM:  79    -0.127806385055E+04   -0.12542E+00   -0.91187E-02  2360   0.589E-01    0.157E+01
RMM:  80    -0.127822992294E+04   -0.16607E+00   -0.11748E-01  2310   0.683E-01    0.149E+01
RMM:  81    -0.127851120837E+04   -0.28129E+00   -0.26528E-01  2285   0.941E-01    0.162E+01
RMM:  82    -0.127845278064E+04    0.58428E-01   -0.11172E-01  2358   0.680E-01    0.146E+01
RMM:  83    -0.127863266801E+04   -0.17989E+00   -0.96595E-02  2274   0.586E-01    0.128E+01
RMM:  84    -0.127892392789E+04   -0.29126E+00   -0.75657E-02  2475   0.493E-01    0.151E+01
RMM:  85    -0.127912821672E+04   -0.20429E+00   -0.85253E-02  2289   0.525E-01    0.145E+01
RMM:  86    -0.127884848880E+04    0.27973E+00   -0.22856E-01  2180   0.905E-01    0.122E+01
RMM:  87    -0.127908670617E+04   -0.23822E+00   -0.57202E-02  2389   0.473E-01    0.119E+01
RMM:  88    -0.127926789600E+04   -0.18119E+00   -0.39191E-02  2481   0.341E-01    0.121E+01
RMM:  89    -0.127940064662E+04   -0.13275E+00   -0.50167E-02  2391   0.421E-01    0.113E+01
RMM:  90    -0.127951414338E+04   -0.11350E+00   -0.31353E-02  2505   0.329E-01    0.105E+01
RMM:  91    -0.127940724251E+04    0.10690E+00   -0.46870E-02  2211   0.427E-01    0.107E+01
RMM:  92    -0.127945851585E+04   -0.51273E-01   -0.10998E-02  2400   0.205E-01    0.101E+01
RMM:  93    -0.127967551192E+04   -0.21700E+00   -0.24269E-02  2252   0.272E-01    0.107E+01
RMM:  94    -0.127980732528E+04   -0.13181E+00   -0.20534E-02  2429   0.248E-01    0.128E+01
RMM:  95    -0.127975793609E+04    0.49389E-01   -0.12469E-02  2396   0.214E-01    0.129E+01
RMM:  96    -0.127950830192E+04    0.24963E+00   -0.24879E-01  2283   0.885E-01    0.134E+01
RMM:  97    -0.127957513512E+04   -0.66833E-01   -0.16066E-01  2288   0.851E-01    0.975E+00
RMM:  98    -0.127959744386E+04   -0.22309E-01   -0.34820E-02  2484   0.338E-01    0.994E+00
RMM:  99    -0.127959902993E+04   -0.15861E-02   -0.11335E-02  2454   0.198E-01    0.992E+00
RMM: 100    -0.127965961459E+04   -0.60585E-01   -0.40012E-02  2232   0.369E-01    0.966E+00
RMM: 101    -0.128012660734E+04   -0.46699E+00   -0.20462E-01  2350   0.810E-01    0.123E+01
RMM: 102    -0.128016680892E+04   -0.40202E-01   -0.93345E-02  2328   0.636E-01    0.104E+01
RMM: 103    -0.128023595749E+04   -0.69149E-01   -0.34640E-02  2492   0.313E-01    0.780E+00
RMM: 104    -0.128043823381E+04   -0.20228E+00   -0.30077E-02  2325   0.317E-01    0.801E+00
RMM: 105    -0.128047204825E+04   -0.33814E-01   -0.20181E-02  2374   0.272E-01    0.808E+00
RMM: 106    -0.128085302349E+04   -0.38098E+00   -0.31761E-01  2223   0.105E+00    0.144E+01
RMM: 107    -0.128083107296E+04    0.21951E-01   -0.13691E-01  2306   0.742E-01    0.121E+01
RMM: 108    -0.128073967634E+04    0.91397E-01   -0.60323E-02  2354   0.458E-01    0.754E+00
RMM: 109    -0.128079860144E+04   -0.58925E-01   -0.33604E-02  2380   0.401E-01    0.778E+00
RMM: 110    -0.128082601415E+04   -0.27413E-01   -0.20342E-02  2367   0.279E-01    0.773E+00
RMM: 111    -0.128082962551E+04   -0.36114E-02   -0.21458E-02  2432   0.269E-01    0.790E+00
RMM: 112    -0.128080444755E+04    0.25178E-01   -0.16922E-02  2544   0.240E-01    0.765E+00
RMM: 113    -0.128076547070E+04    0.38977E-01   -0.29231E-02  2433   0.279E-01    0.731E+00
RMM: 114    -0.128073825844E+04    0.27212E-01   -0.17153E-02  2571   0.196E-01    0.753E+00
RMM: 115    -0.128063964006E+04    0.98618E-01   -0.21689E-02  2512   0.205E-01    0.776E+00
RMM: 116    -0.128056586946E+04    0.73771E-01   -0.26922E-02  2409   0.271E-01    0.905E+00
RMM: 117    -0.128056734900E+04   -0.14795E-02   -0.60708E-03  2460   0.145E-01    0.911E+00
RMM: 118    -0.128057328343E+04   -0.59344E-02   -0.13867E-03  2738   0.541E-02    0.927E+00
RMM: 119    -0.128057402408E+04   -0.74065E-03   -0.31340E-04  2231   0.321E-02    0.934E+00
RMM: 120    -0.128055364426E+04    0.20380E-01   -0.16184E-03  2382   0.660E-02
   1 F= -.12897717E+04 E0= -.12897455E+04  d E =-.128977E+04  mag=    36.4522
       N       E                     dE             d eps       ncg     rms          rms(c)
DAV:   1    -0.128122100428E+04   -0.64698E+00   -0.67231E+01  2256   0.160E+01    0.205E+01
RMM:   2    -0.131708718717E+04   -0.35866E+02   -0.59715E+01  2219   0.140E+01    0.929E+01
RMM:   3    -0.129974884388E+04    0.17338E+02   -0.14878E+01  2203   0.954E+00    0.691E+01
RMM:   4    -0.128841602880E+04    0.11333E+02   -0.46218E+00  2272   0.507E+00    0.430E+01
RMM:   5    -0.128315636986E+04    0.52597E+01   -0.53070E+00  2336   0.425E+00    0.347E+01
RMM:   6    -0.128145799278E+04    0.16984E+01   -0.28646E+00  2406   0.303E+00    0.213E+01
RMM:   7    -0.128153837686E+04   -0.80384E-01   -0.13110E+00  2393   0.209E+00    0.145E+01
RMM:   8    -0.128144296950E+04    0.95407E-01   -0.53665E-01  2392   0.146E+00    0.136E+01
RMM:   9    -0.128138305668E+04    0.59913E-01   -0.26327E-01  2396   0.101E+00    0.786E+00
RMM:  10    -0.128144949180E+04   -0.66435E-01   -0.18601E-01  2329   0.878E-01    0.610E+00
RMM:  11    -0.128149708212E+04   -0.47590E-01   -0.11844E-01  2341   0.741E-01    0.497E+00
RMM:  12    -0.128149350687E+04    0.35752E-02   -0.55413E-02  2403   0.477E-01    0.351E+00
RMM:  13    -0.128154874991E+04   -0.55243E-01   -0.42066E-02  2436   0.392E-01    0.363E+00
RMM:  14    -0.128159122600E+04   -0.42476E-01   -0.54763E-02  2373   0.465E-01    0.358E+00
RMM:  15    -0.128169062111E+04   -0.99395E-01   -0.54093E-02  2387   0.449E-01    0.385E+00
RMM:  16    -0.128171166128E+04   -0.21040E-01   -0.34744E-02  2365   0.390E-01    0.210E+00
RMM:  17    -0.128179942867E+04   -0.87767E-01   -0.30118E-02  2361   0.339E-01    0.263E+00
RMM:  18    -0.128183247003E+04   -0.33041E-01   -0.21791E-02  2428   0.299E-01    0.166E+00
RMM:  19    -0.128187294534E+04   -0.40475E-01   -0.15245E-02  2384   0.242E-01    0.130E+00
RMM:  20    -0.128190815638E+04   -0.35211E-01   -0.67542E-03  2416   0.163E-01    0.124E+00
RMM:  21    -0.128193194837E+04   -0.23792E-01   -0.33125E-03  2473   0.108E-01    0.111E+00
RMM:  22    -0.128196340479E+04   -0.31456E-01   -0.25835E-03  2464   0.884E-02    0.872E-01
RMM:  23    -0.128200383740E+04   -0.40433E-01   -0.35541E-03  2455   0.997E-02    0.798E-01
RMM:  24    -0.128203302092E+04   -0.29184E-01   -0.28011E-03  2458   0.963E-02    0.583E-01
RMM:  25    -0.128205109830E+04   -0.18077E-01   -0.16572E-03  2468   0.725E-02    0.428E-01
RMM:  26    -0.128206608716E+04   -0.14989E-01   -0.94583E-04  2492   0.543E-02    0.295E-01
RMM:  27    -0.128207862823E+04   -0.12541E-01   -0.74758E-04  2460   0.458E-02    0.360E-01
RMM:  28    -0.128208788409E+04   -0.92559E-02   -0.49130E-04  2427   0.390E-02    0.262E-01
RMM:  29    -0.128210346118E+04   -0.15577E-01   -0.48500E-04  2461   0.332E-02    0.216E-01
RMM:  30    -0.128212145473E+04   -0.17994E-01   -0.70877E-04  2547   0.378E-02    0.224E-01
RMM:  31    -0.128213649528E+04   -0.15041E-01   -0.57622E-04  2583   0.334E-02    0.187E-01
RMM:  32    -0.128214637026E+04   -0.98750E-02   -0.33698E-04  2618   0.244E-02    0.157E-01
RMM:  33    -0.128215318895E+04   -0.68187E-02   -0.19903E-04  2514   0.177E-02    0.100E-01
RMM:  34    -0.128216039998E+04   -0.72110E-02   -0.18668E-04  2465   0.159E-02    0.727E-02
RMM:  35    -0.128216976712E+04   -0.93671E-02   -0.31994E-04  2421   0.176E-02    0.614E-02
RMM:  36    -0.128217614885E+04   -0.63817E-02   -0.28034E-04  2564   0.162E-02    0.508E-02
RMM:  37    -0.128217861797E+04   -0.24691E-02   -0.88753E-05  2306   0.907E-03    0.354E-02
RMM:  38    -0.128218078573E+04   -0.21678E-02   -0.64231E-05  2313   0.792E-03    0.336E-02
RMM:  39    -0.128218346945E+04   -0.26837E-02   -0.10674E-04  2279   0.896E-03    0.189E-02
RMM:  40    -0.128218475283E+04   -0.12834E-02   -0.60230E-05  2270   0.737E-03    0.198E-02
RMM:  41    -0.128218517507E+04   -0.42224E-03   -0.18962E-05  2007   0.421E-03    0.125E-02
RMM:  42    -0.128218549369E+04   -0.31862E-03   -0.12507E-05  1884   0.371E-03    0.102E-02
RMM:  43    -0.128218569266E+04   -0.19898E-03   -0.97501E-06  1815   0.308E-03    0.547E-03
RMM:  44    -0.128218577411E+04   -0.81447E-04   -0.46445E-06  1626   0.248E-03    0.380E-03
RMM:  45    -0.128218580143E+04   -0.27322E-04   -0.23365E-06  1440   0.183E-03    0.254E-03
RMM:  46    -0.128218581584E+04   -0.14408E-04   -0.10582E-06  1300   0.144E-03    0.179E-03
RMM:  47    -0.128218582649E+04   -0.10647E-04   -0.73935E-07  1247   0.111E-03    0.103E-03
RMM:  48    -0.128218583173E+04   -0.52468E-05   -0.46076E-07  1128   0.954E-04    0.937E-04
RMM:  49    -0.128218583628E+04   -0.45498E-05   -0.37412E-07  1075   0.761E-04    0.598E-04
RMM:  50    -0.128218583954E+04   -0.32602E-05   -0.26060E-07  1019   0.716E-04    0.369E-04
RMM:  51    -0.128218584259E+04   -0.30444E-05   -0.21232E-07   951   0.567E-04    0.328E-04
RMM:  52    -0.128218584479E+04   -0.22000E-05   -0.15792E-07   923   0.559E-04    0.249E-04
RMM:  53    -0.128218584634E+04   -0.15510E-05   -0.12145E-07   866   0.462E-04    0.197E-04
RMM:  54    -0.128218584779E+04   -0.14547E-05   -0.97170E-08   845   0.454E-04    0.187E-04
RMM:  55    -0.128218584888E+04   -0.10859E-05   -0.81042E-08   816   0.408E-04    0.112E-04
RMM:  56    -0.128218584969E+04   -0.81584E-06   -0.67224E-08   809   0.401E-04
   2 F= -.12913976E+04 E0= -.12913848E+04  d E =-.162582E+01  mag=    37.5816
       N       E                     dE             d eps       ncg     rms          rms(c)
DAV:   1    -0.128218747010E+04   -0.16212E-02   -0.12096E-02  2256   0.191E-01    0.433E-02
RMM:   2    -0.128218748692E+04   -0.16818E-04   -0.23180E-04  2384   0.318E-02    0.722E-02
RMM:   3    -0.128218752163E+04   -0.34717E-04   -0.65254E-05  2348   0.164E-02    0.143E-01
RMM:   4    -0.128218748603E+04    0.35600E-04   -0.34992E-05  1952   0.124E-02    0.711E-02
RMM:   5    -0.128218749083E+04   -0.47983E-05   -0.16238E-05  1695   0.914E-03    0.213E-02
RMM:   6    -0.128218749724E+04   -0.64089E-05   -0.52992E-06  1527   0.524E-03    0.243E-02
RMM:   7    -0.128218749757E+04   -0.32759E-06   -0.38642E-06  1492   0.458E-03
   3 F= -.12913993E+04 E0= -.12913866E+04  d E =-.162755E+01  mag=    37.5815
       N       E                     dE             d eps       ncg     rms          rms(c)
DAV:   1    -0.128218947566E+04   -0.19784E-02   -0.96539E+00  2208   0.541E+00    0.124E+00
RMM:   2    -0.128221496310E+04   -0.25487E-01   -0.19583E-01  2378   0.917E-01    0.225E+00
RMM:   3    -0.128223081100E+04   -0.15848E-01   -0.54403E-02  2611   0.460E-01    0.252E+00
RMM:   4    -0.128222138358E+04    0.94274E-02   -0.25803E-02  2574   0.322E-01    0.201E+00
RMM:   5    -0.128221275665E+04    0.86269E-02   -0.11729E-02  2465   0.222E-01    0.852E-01
RMM:   6    -0.128221374560E+04   -0.98895E-03   -0.50826E-03  2447   0.145E-01    0.686E-01
RMM:   7    -0.128221385218E+04   -0.10658E-03   -0.35244E-03  2536   0.113E-01    0.721E-01
RMM:   8    -0.128221293095E+04    0.92123E-03   -0.23947E-03  2443   0.946E-02    0.512E-01
RMM:   9    -0.128221290276E+04    0.28193E-04   -0.16188E-03  2493   0.790E-02    0.495E-01
RMM:  10    -0.128221272177E+04    0.18099E-03   -0.86607E-04  2390   0.623E-02    0.380E-01
RMM:  11    -0.128221258041E+04    0.14136E-03   -0.40142E-04  2386   0.413E-02    0.178E-01
RMM:  12    -0.128221265188E+04   -0.71467E-04   -0.24526E-04  2313   0.327E-02    0.142E-01
RMM:  13    -0.128221271113E+04   -0.59252E-04   -0.13035E-04  2249   0.235E-02    0.114E-01
RMM:  14    -0.128221276907E+04   -0.57938E-04   -0.70624E-05  2141   0.173E-02    0.764E-02
RMM:  15    -0.128221283615E+04   -0.67088E-04   -0.50304E-05  1988   0.142E-02    0.628E-02
RMM:  16    -0.128221290442E+04   -0.68264E-04   -0.21663E-05  1841   0.911E-03    0.314E-02
RMM:  17    -0.128221295193E+04   -0.47516E-04   -0.94668E-06  1640   0.589E-03    0.340E-02
RMM:  18    -0.128221296935E+04   -0.17413E-04   -0.45552E-06  1518   0.462E-03    0.225E-02
RMM:  19    -0.128221298548E+04   -0.16137E-04   -0.22123E-06  1452   0.317E-03    0.189E-02
RMM:  20    -0.128221300814E+04   -0.22658E-04   -0.19039E-06  1405   0.277E-03    0.153E-02
RMM:  21    -0.128221304162E+04   -0.33476E-04   -0.29670E-06  1506   0.322E-03    0.167E-02
RMM:  22    -0.128221306485E+04   -0.23234E-04   -0.32145E-06  1516   0.335E-03    0.174E-02
RMM:  23    -0.128221308092E+04   -0.16071E-04   -0.21538E-06  1436   0.267E-03    0.653E-03
RMM:  24    -0.128221309090E+04   -0.99754E-05   -0.12002E-06  1307   0.182E-03    0.741E-03
RMM:  25    -0.128221309417E+04   -0.32737E-05   -0.75230E-07  1221   0.169E-03    0.615E-03
RMM:  26    -0.128221310045E+04   -0.62806E-05   -0.62532E-07  1202   0.132E-03    0.436E-03
RMM:  27    -0.128221310756E+04   -0.71131E-05   -0.64616E-07  1220   0.136E-03    0.397E-03
RMM:  28    -0.128221311249E+04   -0.49298E-05   -0.54068E-07  1167   0.125E-03    0.506E-03
RMM:  29    -0.128221311651E+04   -0.40153E-05   -0.43254E-07  1126   0.110E-03    0.223E-03
RMM:  30    -0.128221312312E+04   -0.66112E-05   -0.44924E-07  1166   0.899E-04    0.166E-03
RMM:  31    -0.128221312823E+04   -0.51086E-05   -0.32303E-07  1071   0.854E-04    0.121E-03
RMM:  32    -0.128221313537E+04   -0.71413E-05   -0.35078E-07  1057   0.715E-04    0.123E-03
RMM:  33    -0.128221313843E+04   -0.30567E-05   -0.22709E-07   983   0.736E-04    0.124E-03
RMM:  34    -0.128221314313E+04   -0.47082E-05   -0.22195E-07   974   0.557E-04    0.705E-04
RMM:  35    -0.128221314835E+04   -0.52144E-05   -0.19355E-07   990   0.614E-04    0.537E-04
RMM:  36    -0.128221315441E+04   -0.60563E-05   -0.27041E-07  1017   0.558E-04    0.403E-04
RMM:  37    -0.128221315897E+04   -0.45692E-05   -0.23807E-07  1015   0.629E-04    0.371E-04
RMM:  38    -0.128221316170E+04   -0.27240E-05   -0.22207E-07   943   0.535E-04    0.298E-04
RMM:  39    -0.128221316358E+04   -0.18810E-05   -0.18781E-07   922   0.559E-04    0.182E-04
RMM:  40    -0.128221316456E+04   -0.97899E-06   -0.15363E-07   864   0.473E-04
   4 F= -.12914274E+04 E0= -.12914151E+04  d E =-.165562E+01  mag=    37.5840
       N       E                     dE             d eps       ncg     rms          rms(c)
DAV:   1    -0.128222306641E+04   -0.99028E-02   -0.14644E+01  2160   0.581E+00    0.139E+00
RMM:   2    -0.128225277983E+04   -0.29713E-01   -0.25725E-01  2408   0.950E-01    0.131E+00
RMM:   3    -0.128229804952E+04   -0.45270E-01   -0.72184E-02  2572   0.486E-01    0.500E+00
RMM:   4    -0.128225617915E+04    0.41870E-01   -0.26728E-02  2561   0.331E-01    0.193E+00
RMM:   5    -0.128225855829E+04   -0.23791E-02   -0.16185E-02  2382   0.268E-01    0.869E-01
RMM:   6    -0.128225912257E+04   -0.56428E-03   -0.54863E-03  2432   0.148E-01    0.622E-01
RMM:   7    -0.128226117867E+04   -0.20561E-02   -0.45084E-03  2466   0.127E-01    0.798E-01
RMM:   8    -0.128225928748E+04    0.18912E-02   -0.23060E-03  2460   0.101E-01    0.291E-01
RMM:   9    -0.128226046711E+04   -0.11796E-02   -0.18917E-03  2424   0.822E-02    0.539E-01
RMM:  10    -0.128225972034E+04    0.74677E-03   -0.90671E-04  2382   0.622E-02    0.299E-01
RMM:  11    -0.128225982053E+04   -0.10019E-03   -0.37909E-04  2304   0.374E-02    0.265E-01
RMM:  12    -0.128225976237E+04    0.58162E-04   -0.15773E-04  2235   0.246E-02    0.144E-01
RMM:  13    -0.128225980534E+04   -0.42970E-04   -0.71021E-05  2079   0.172E-02    0.103E-01
RMM:  14    -0.128225986454E+04   -0.59199E-04   -0.53402E-05  2054   0.142E-02    0.906E-02
RMM:  15    -0.128225989938E+04   -0.34841E-04   -0.49337E-05  2000   0.143E-02    0.514E-02
RMM:  16    -0.128225994583E+04   -0.46456E-04   -0.25078E-05  1859   0.101E-02    0.502E-02
RMM:  17    -0.128225996115E+04   -0.15312E-04   -0.16115E-05  1648   0.849E-03    0.444E-02
RMM:  18    -0.128225996417E+04   -0.30193E-05   -0.65775E-06  1549   0.584E-03    0.263E-02
RMM:  19    -0.128225997177E+04   -0.76058E-05   -0.31787E-06  1499   0.382E-03    0.202E-02
RMM:  20    -0.128225998023E+04   -0.84551E-05   -0.24686E-06  1463   0.339E-03    0.165E-02
RMM:  21    -0.128225999401E+04   -0.13782E-04   -0.23371E-06  1454   0.319E-03    0.170E-02
RMM:  22    -0.128226000202E+04   -0.80166E-05   -0.18547E-06  1420   0.299E-03    0.113E-02
RMM:  23    -0.128226001495E+04   -0.12929E-04   -0.10139E-06  1305   0.205E-03    0.678E-03
RMM:  24    -0.128226002083E+04   -0.58734E-05   -0.74288E-07  1236   0.183E-03    0.872E-03
RMM:  25    -0.128226002501E+04   -0.41838E-05   -0.52351E-07  1180   0.148E-03    0.468E-03
RMM:  26    -0.128226003063E+04   -0.56193E-05   -0.36819E-07  1145   0.109E-03    0.379E-03
RMM:  27    -0.128226003627E+04   -0.56402E-05   -0.34066E-07  1152   0.103E-03    0.395E-03
RMM:  28    -0.128226003981E+04   -0.35366E-05   -0.27771E-07  1089   0.976E-04    0.382E-03
RMM:  29    -0.128226004463E+04   -0.48210E-05   -0.23889E-07  1074   0.805E-04    0.184E-03
RMM:  30    -0.128226004959E+04   -0.49599E-05   -0.20897E-07  1047   0.690E-04    0.125E-03
RMM:  31    -0.128226005352E+04   -0.39295E-05   -0.18595E-07   997   0.641E-04    0.120E-03
RMM:  32    -0.128226005582E+04   -0.22989E-05   -0.14444E-07   961   0.582E-04    0.137E-03
RMM:  33    -0.128226005948E+04   -0.36668E-05   -0.16681E-07  1016   0.546E-04    0.890E-04
RMM:  34    -0.128226006280E+04   -0.33175E-05   -0.16256E-07  1017   0.554E-04    0.690E-04
RMM:  35    -0.128226006567E+04   -0.28737E-05   -0.18054E-07   998   0.513E-04    0.471E-04
RMM:  36    -0.128226006760E+04   -0.19265E-05   -0.15058E-07   977   0.532E-04    0.356E-04
RMM:  37    -0.128226006880E+04   -0.12042E-05   -0.13724E-07   925   0.472E-04    0.241E-04
RMM:  38    -0.128226006981E+04   -0.10052E-05   -0.12360E-07   949   0.478E-04    0.182E-04
RMM:  39    -0.128226007027E+04   -0.46185E-06   -0.10235E-07   877   0.440E-04
   5 F= -.12914799E+04 E0= -.12914674E+04  d E =-.525874E-01  mag=    37.5806
       N       E                     dE             d eps       ncg     rms          rms(c)
DAV:   1    -0.128220127205E+04    0.58798E-01   -0.30386E+01  2160   0.835E+00    0.193E+00
RMM:   2    -0.128226417708E+04   -0.62905E-01   -0.56023E-01  2390   0.138E+00    0.170E+00
RMM:   3    -0.128234534486E+04   -0.81168E-01   -0.14708E-01  2593   0.670E-01    0.680E+00
RMM:   4    -0.128227366318E+04    0.71682E-01   -0.47196E-02  2535   0.445E-01    0.254E+00
RMM:   5    -0.128227960929E+04   -0.59461E-02   -0.28971E-02  2399   0.362E-01    0.141E+00
RMM:   6    -0.128228136691E+04   -0.17576E-02   -0.12254E-02  2466   0.214E-01    0.130E+00
RMM:   7    -0.128228029217E+04    0.10747E-02   -0.76393E-03  2475   0.174E-01    0.949E-01
RMM:   8    -0.128227957100E+04    0.72117E-03   -0.44053E-03  2484   0.141E-01    0.525E-01
RMM:   9    -0.128228110073E+04   -0.15297E-02   -0.35956E-03  2391   0.117E-01    0.678E-01
RMM:  10    -0.128228002662E+04    0.10741E-02   -0.17753E-03  2429   0.873E-02    0.362E-01
RMM:  11    -0.128228015319E+04   -0.12657E-03   -0.59535E-04  2354   0.486E-02    0.346E-01
RMM:  12    -0.128228013439E+04    0.18797E-04   -0.28430E-04  2316   0.340E-02    0.205E-01
RMM:  13    -0.128228018568E+04   -0.51293E-04   -0.13495E-04  2188   0.238E-02    0.144E-01
RMM:  14    -0.128228028807E+04   -0.10238E-03   -0.11182E-04  2192   0.210E-02    0.125E-01
RMM:  15    -0.128228035361E+04   -0.65542E-04   -0.11387E-04  2172   0.217E-02    0.990E-02
RMM:  16    -0.128228043419E+04   -0.80581E-04   -0.67780E-05  2072   0.169E-02    0.824E-02
RMM:  17    -0.128228046618E+04   -0.31987E-04   -0.41582E-05  1927   0.133E-02    0.648E-02
RMM:  18    -0.128228047463E+04   -0.84531E-05   -0.17083E-05  1668   0.893E-03    0.448E-02
RMM:  19    -0.128228048642E+04   -0.11795E-04   -0.82218E-06  1588   0.624E-03    0.359E-02
RMM:  20    -0.128228050006E+04   -0.13639E-04   -0.55176E-06  1548   0.499E-03    0.285E-02
RMM:  21    -0.128228051921E+04   -0.19152E-04   -0.54248E-06  1558   0.488E-03    0.299E-02
RMM:  22    -0.128228054212E+04   -0.22905E-04   -0.43240E-06  1529   0.459E-03    0.159E-02
RMM:  23    -0.128228057437E+04   -0.32255E-04   -0.25377E-06  1450   0.311E-03    0.109E-02
RMM:  24    -0.128228059004E+04   -0.15666E-04   -0.17487E-06  1400   0.277E-03    0.135E-02
RMM:  25    -0.128228059947E+04   -0.94265E-05   -0.10957E-06  1342   0.222E-03    0.788E-03
RMM:  26    -0.128228061071E+04   -0.11244E-04   -0.78931E-07  1239   0.170E-03    0.547E-03
RMM:  27    -0.128228062211E+04   -0.11402E-04   -0.58391E-07  1203   0.145E-03    0.624E-03
RMM:  28    -0.128228062767E+04   -0.55547E-05   -0.46577E-07  1138   0.135E-03    0.516E-03
RMM:  29    -0.128228063782E+04   -0.10156E-04   -0.38368E-07  1140   0.101E-03    0.288E-03
RMM:  30    -0.128228064812E+04   -0.10299E-04   -0.35962E-07  1135   0.879E-04    0.224E-03
RMM:  31    -0.128228065468E+04   -0.65607E-05   -0.30835E-07  1105   0.865E-04    0.260E-03
RMM:  32    -0.128228065869E+04   -0.40040E-05   -0.23624E-07  1012   0.753E-04    0.163E-03
RMM:  33    -0.128228066551E+04   -0.68256E-05   -0.27144E-07  1083   0.674E-04    0.123E-03
RMM:  34    -0.128228067050E+04   -0.49887E-05   -0.23864E-07  1050   0.683E-04    0.114E-03
RMM:  35    -0.128228067594E+04   -0.54358E-05   -0.28470E-07  1045   0.613E-04    0.742E-04
RMM:  36    -0.128228068090E+04   -0.49606E-05   -0.29746E-07  1102   0.695E-04    0.596E-04
RMM:  37    -0.128228068345E+04   -0.25494E-05   -0.27845E-07  1047   0.640E-04    0.391E-04
RMM:  38    -0.128228068529E+04   -0.18401E-05   -0.24283E-07  1016   0.623E-04    0.315E-04
RMM:  39    -0.128228068628E+04   -0.99587E-06   -0.21355E-07   975   0.580E-04
   6 F= -.12915088E+04 E0= -.12914960E+04  d E =-.814588E-01  mag=    37.5845
       N       E                     dE             d eps       ncg     rms          rms(c)
DAV:   1    -0.128230784002E+04   -0.27155E-01   -0.87458E+00  2208   0.520E+00    0.128E+00
RMM:   2    -0.128232731862E+04   -0.19479E-01   -0.21178E-01  2476   0.928E-01    0.237E+00
RMM:   3    -0.128234344455E+04   -0.16126E-01   -0.53803E-02  2551   0.465E-01    0.278E+00
RMM:   4    -0.128232869699E+04    0.14748E-01   -0.28061E-02  2591   0.345E-01    0.173E+00
RMM:   5    -0.128232404451E+04    0.46525E-02   -0.12292E-02  2487   0.223E-01    0.102E+00
RMM:   6    -0.128232307515E+04    0.96936E-03   -0.58540E-03  2483   0.151E-01    0.753E-01
RMM:   7    -0.128232298501E+04    0.90139E-04   -0.28734E-03  2503   0.107E-01    0.518E-01
RMM:   8    -0.128232327923E+04   -0.29422E-03   -0.25556E-03  2502   0.944E-02    0.459E-01
RMM:   9    -0.128232363406E+04   -0.35484E-03   -0.16704E-03  2478   0.801E-02    0.706E-01
RMM:  10    -0.128232266410E+04    0.96997E-03   -0.82970E-04  2359   0.605E-02    0.372E-01
RMM:  11    -0.128232273219E+04   -0.68089E-04   -0.49906E-04  2385   0.467E-02    0.217E-01
RMM:  12    -0.128232272331E+04    0.88745E-05   -0.19699E-04  2384   0.311E-02    0.134E-01
RMM:  13    -0.128232276839E+04   -0.45080E-04   -0.10022E-04  2197   0.217E-02    0.123E-01
RMM:  14    -0.128232274683E+04    0.21559E-04   -0.41070E-05  1995   0.140E-02    0.485E-02
RMM:  15    -0.128232277296E+04   -0.26130E-04   -0.23155E-05  1901   0.985E-03    0.440E-02
RMM:  16    -0.128232278763E+04   -0.14671E-04   -0.10800E-05  1629   0.712E-03    0.369E-02
RMM:  17    -0.128232279883E+04   -0.11202E-04   -0.46624E-06  1532   0.493E-03    0.250E-02
RMM:  18    -0.128232281597E+04   -0.17140E-04   -0.21805E-06  1452   0.336E-03    0.158E-02
RMM:  19    -0.128232282848E+04   -0.12500E-04   -0.13462E-06  1350   0.265E-03    0.119E-02
RMM:  20    -0.128232285253E+04   -0.24054E-04   -0.99170E-07  1328   0.216E-03    0.939E-03
RMM:  21    -0.128232288127E+04   -0.28746E-04   -0.14745E-06  1410   0.238E-03    0.149E-02
RMM:  22    -0.128232291065E+04   -0.29375E-04   -0.15399E-06  1408   0.248E-03    0.105E-02
RMM:  23    -0.128232293380E+04   -0.23148E-04   -0.96918E-07  1296   0.191E-03    0.545E-03
RMM:  24    -0.128232294987E+04   -0.16073E-04   -0.63621E-07  1212   0.148E-03    0.528E-03
RMM:  25    -0.128232295790E+04   -0.80267E-05   -0.42294E-07  1123   0.123E-03    0.487E-03
RMM:  26    -0.128232296782E+04   -0.99260E-05   -0.30317E-07  1094   0.911E-04    0.354E-03
RMM:  27    -0.128232298320E+04   -0.15376E-04   -0.31790E-07  1092   0.841E-04    0.279E-03
RMM:  28    -0.128232300166E+04   -0.18457E-04   -0.40591E-07  1127   0.922E-04    0.396E-03
RMM:  29    -0.128232301904E+04   -0.17382E-04   -0.46083E-07  1128   0.978E-04    0.234E-03
RMM:  30    -0.128232303905E+04   -0.20016E-04   -0.60446E-07  1134   0.896E-04    0.158E-03
RMM:  31    -0.128232304828E+04   -0.92219E-05   -0.41713E-07  1068   0.837E-04    0.130E-03
RMM:  32    -0.128232306161E+04   -0.13339E-04   -0.49347E-07  1060   0.743E-04    0.120E-03
RMM:  33    -0.128232306768E+04   -0.60627E-05   -0.34633E-07  1021   0.826E-04    0.144E-03
RMM:  34    -0.128232308009E+04   -0.12413E-04   -0.58773E-07  1096   0.717E-04    0.953E-04
RMM:  35    -0.128232308696E+04   -0.68695E-05   -0.40882E-07  1071   0.852E-04    0.522E-04
RMM:  36    -0.128232309064E+04   -0.36761E-05   -0.36387E-07   998   0.628E-04    0.402E-04
RMM:  37    -0.128232309338E+04   -0.27402E-05   -0.27857E-07   981   0.698E-04    0.387E-04
RMM:  38    -0.128232309531E+04   -0.19381E-05   -0.25383E-07   923   0.551E-04    0.255E-04
RMM:  39    -0.128232309634E+04   -0.10292E-05   -0.18562E-07   902   0.592E-04    0.180E-04
RMM:  40    -0.128232309672E+04   -0.38001E-06   -0.12682E-07   798   0.443E-04
   7 F= -.12915597E+04 E0= -.12915469E+04  d E =-.508524E-01  mag=    37.6081
       N       E                     dE             d eps       ncg     rms          rms(c)
DAV:   1    -0.128232123741E+04    0.18589E-02   -0.24507E+00  2232   0.275E+00    0.670E-01
RMM:   2    -0.128232639119E+04   -0.51538E-02   -0.57825E-02  2475   0.491E-01    0.121E+00
RMM:   3    -0.128233125823E+04   -0.48670E-02   -0.14492E-02  2534   0.247E-01    0.173E+00
RMM:   4    -0.128232659526E+04    0.46630E-02   -0.81758E-03  2595   0.187E-01    0.106E+00
RMM:   5    -0.128232554979E+04    0.10455E-02   -0.35193E-03  2490   0.121E-01    0.624E-01
RMM:   6    -0.128232524685E+04    0.30294E-03   -0.19373E-03  2437   0.873E-02    0.351E-01
RMM:   7    -0.128232522920E+04    0.17652E-04   -0.10217E-03  2502   0.593E-02    0.269E-01
RMM:   8    -0.128232537877E+04   -0.14957E-03   -0.70418E-04  2458   0.509E-02    0.294E-01
RMM:   9    -0.128232535524E+04    0.23525E-04   -0.54758E-04  2423   0.447E-02    0.300E-01
RMM:  10    -0.128232518037E+04    0.17487E-03   -0.24902E-04  2361   0.341E-02    0.189E-01
RMM:  11    -0.128232516484E+04    0.15529E-04   -0.11719E-04  2259   0.229E-02    0.121E-01
RMM:  12    -0.128232516865E+04   -0.38066E-05   -0.47928E-05  2053   0.148E-02    0.647E-02
RMM:  13    -0.128232517696E+04   -0.83067E-05   -0.23154E-05  1817   0.108E-02    0.387E-02
RMM:  14    -0.128232518479E+04   -0.78314E-05   -0.98413E-06  1612   0.691E-03    0.308E-02
RMM:  15    -0.128232518735E+04   -0.25667E-05   -0.59884E-06  1522   0.576E-03    0.207E-02
RMM:  16    -0.128232519679E+04   -0.94383E-05   -0.28704E-06  1469   0.385E-03    0.161E-02
RMM:  17    -0.128232520224E+04   -0.54525E-05   -0.16053E-06  1390   0.304E-03    0.125E-02
RMM:  18    -0.128232520728E+04   -0.50369E-05   -0.68593E-07  1276   0.196E-03    0.843E-03
RMM:  19    -0.128232521240E+04   -0.51135E-05   -0.40779E-07  1254   0.152E-03    0.560E-03
RMM:  20    -0.128232521894E+04   -0.65470E-05   -0.33452E-07  1240   0.119E-03    0.689E-03
RMM:  21    -0.128232522763E+04   -0.86844E-05   -0.35364E-07  1188   0.131E-03    0.432E-03
RMM:  22    -0.128232524056E+04   -0.12938E-04   -0.38926E-07  1202   0.113E-03    0.417E-03
RMM:  23    -0.128232524757E+04   -0.70091E-05   -0.29839E-07  1132   0.110E-03    0.377E-03
RMM:  24    -0.128232525036E+04   -0.27892E-05   -0.18077E-07  1038   0.768E-04    0.339E-03
RMM:  25    -0.128232525421E+04   -0.38462E-05   -0.13391E-07   989   0.671E-04    0.169E-03
RMM:  26    -0.128232525925E+04   -0.50362E-05   -0.11670E-07   928   0.527E-04    0.148E-03
RMM:  27    -0.128232526520E+04   -0.59549E-05   -0.12561E-07   973   0.544E-04    0.134E-03
RMM:  28    -0.128232527092E+04   -0.57205E-05   -0.14612E-07   974   0.569E-04    0.205E-03
RMM:  29    -0.128232527755E+04   -0.66334E-05   -0.18019E-07  1000   0.600E-04    0.110E-03
RMM:  30    -0.128232528193E+04   -0.43713E-05   -0.16019E-07   955   0.552E-04    0.655E-04
RMM:  31    -0.128232528499E+04   -0.30611E-05   -0.13547E-07   892   0.490E-04    0.682E-04
RMM:  32    -0.128232528941E+04   -0.44259E-05   -0.16748E-07   960   0.500E-04    0.434E-04
RMM:  33    -0.128232529246E+04   -0.30517E-05   -0.15486E-07   943   0.527E-04    0.603E-04
RMM:  34    -0.128232529402E+04   -0.15592E-05   -0.12484E-07   853   0.474E-04    0.570E-04
RMM:  35    -0.128232529555E+04   -0.15232E-05   -0.11094E-07   855   0.454E-04    0.276E-04
RMM:  36    -0.128232529670E+04   -0.11574E-05   -0.98548E-08   860   0.430E-04    0.217E-04
RMM:  37    -0.128232529772E+04   -0.10111E-05   -0.91721E-08   828   0.416E-04    0.149E-04
RMM:  38    -0.128232529832E+04   -0.60065E-06   -0.79209E-08   796   0.405E-04
   8 F= -.12915663E+04 E0= -.12915537E+04  d E =-.575287E-01  mag=    37.6204
       N       E                     dE             d eps       ncg     rms          rms(c)
DAV:   1    -0.128233776312E+04   -0.12465E-01   -0.70571E+00  2172   0.484E+00    0.958E-01
RMM:   2    -0.128235269388E+04   -0.14931E-01   -0.15284E-01  2516   0.779E-01    0.150E+00
RMM:   3    -0.128236549664E+04   -0.12803E-01   -0.37671E-02  2592   0.380E-01    0.221E+00
RMM:   4    -0.128235568407E+04    0.98126E-02   -0.16310E-02  2602   0.257E-01    0.151E+00
RMM:   5    -0.128235214041E+04    0.35437E-02   -0.67463E-03  2488   0.169E-01    0.750E-01
RMM:   6    -0.128235231499E+04   -0.17457E-03   -0.33090E-03  2480   0.111E-01    0.629E-01
RMM:   7    -0.128235206429E+04    0.25070E-03   -0.17841E-03  2511   0.832E-02    0.389E-01
RMM:   8    -0.128235249075E+04   -0.42647E-03   -0.14373E-03  2473   0.765E-02    0.480E-01
RMM:   9    -0.128235232013E+04    0.17063E-03   -0.12282E-03  2515   0.674E-02    0.376E-01
RMM:  10    -0.128235236969E+04   -0.49563E-04   -0.66522E-04  2401   0.538E-02    0.380E-01
RMM:  11    -0.128235204229E+04    0.32740E-03   -0.27804E-04  2363   0.343E-02    0.158E-01
RMM:  12    -0.128235216942E+04   -0.12713E-03   -0.16142E-04  2305   0.265E-02    0.118E-01
RMM:  13    -0.128235219454E+04   -0.25115E-04   -0.76939E-05  2118   0.190E-02    0.989E-02
RMM:  14    -0.128235219427E+04    0.26503E-06   -0.29349E-05  1930   0.117E-02    0.530E-02
RMM:  15    -0.128235221168E+04   -0.17411E-04   -0.15870E-05  1710   0.840E-03    0.385E-02
RMM:  16    -0.128235222609E+04   -0.14406E-04   -0.90435E-06  1611   0.661E-03    0.245E-02
RMM:  17    -0.128235223724E+04   -0.11146E-04   -0.49161E-06  1508   0.505E-03    0.242E-02
RMM:  18    -0.128235225071E+04   -0.13474E-04   -0.26792E-06  1463   0.378E-03    0.132E-02
RMM:  19    -0.128235226013E+04   -0.94175E-05   -0.19659E-06  1429   0.315E-03    0.166E-02
RMM:  20    -0.128235226698E+04   -0.68568E-05   -0.11943E-06  1354   0.247E-03    0.904E-03
RMM:  21    -0.128235227334E+04   -0.63603E-05   -0.63530E-07  1279   0.180E-03    0.550E-03
RMM:  22    -0.128235228404E+04   -0.10693E-04   -0.56078E-07  1236   0.143E-03    0.826E-03
RMM:  23    -0.128235228928E+04   -0.52461E-05   -0.51139E-07  1183   0.158E-03    0.623E-03
RMM:  24    -0.128235230125E+04   -0.11970E-04   -0.49740E-07  1245   0.119E-03    0.353E-03
RMM:  25    -0.128235230571E+04   -0.44539E-05   -0.32811E-07  1130   0.113E-03    0.340E-03
RMM:  26    -0.128235230913E+04   -0.34187E-05   -0.22250E-07  1039   0.778E-04    0.323E-03
RMM:  27    -0.128235231177E+04   -0.26492E-05   -0.15292E-07   963   0.717E-04    0.206E-03
RMM:  28    -0.128235231697E+04   -0.51998E-05   -0.18038E-07  1043   0.606E-04    0.153E-03
RMM:  29    -0.128235232245E+04   -0.54795E-05   -0.18553E-07  1059   0.680E-04    0.144E-03
RMM:  30    -0.128235232604E+04   -0.35826E-05   -0.17904E-07  1039   0.614E-04    0.168E-03
RMM:  31    -0.128235232720E+04   -0.11664E-05   -0.11700E-07   909   0.571E-04    0.105E-03
RMM:  32    -0.128235232887E+04   -0.16642E-05   -0.92930E-08   848   0.431E-04    0.642E-04
RMM:  33    -0.128235233074E+04   -0.18706E-05   -0.82354E-08   869   0.437E-04    0.485E-04
RMM:  34    -0.128235233302E+04   -0.22808E-05   -0.98575E-08   918   0.417E-04    0.402E-04
RMM:  35    -0.128235233487E+04   -0.18502E-05   -0.86270E-08   904   0.445E-04    0.306E-04
RMM:  36    -0.128235233628E+04   -0.14116E-05   -0.79998E-08   841   0.392E-04    0.242E-04
RMM:  37    -0.128235233757E+04   -0.12914E-05   -0.74461E-08   854   0.407E-04    0.220E-04
RMM:  38    -0.128235233887E+04   -0.13000E-05   -0.83911E-08   889   0.392E-04    0.171E-04
RMM:  39    -0.128235233958E+04   -0.71169E-06   -0.68415E-08   849   0.402E-04
   9 F= -.12915988E+04 E0= -.12915860E+04  d E =-.324892E-01  mag=    37.6201
       N       E                     dE             d eps       ncg     rms          rms(c)
DAV:   1    -0.128234590101E+04    0.64379E-02   -0.51147E+00  2184   0.411E+00    0.813E-01
RMM:   2    -0.128235642843E+04   -0.10527E-01   -0.10975E-01  2512   0.662E-01    0.124E+00
RMM:   3    -0.128236598533E+04   -0.95569E-02   -0.27098E-02  2597   0.322E-01    0.195E+00
RMM:   4    -0.128235861233E+04    0.73730E-02   -0.11891E-02  2587   0.219E-01    0.131E+00
RMM:   5    -0.128235617179E+04    0.24405E-02   -0.49376E-03  2481   0.146E-01    0.675E-01
RMM:   6    -0.128235617719E+04   -0.54045E-05   -0.24152E-03  2490   0.944E-02    0.522E-01
RMM:   7    -0.128235612365E+04    0.53545E-04   -0.13566E-03  2505   0.733E-02    0.360E-01
RMM:   8    -0.128235635261E+04   -0.22896E-03   -0.10612E-03  2457   0.657E-02    0.385E-01
RMM:   9    -0.128235622798E+04    0.12463E-03   -0.86661E-04  2513   0.566E-02    0.293E-01
RMM:  10    -0.128235634920E+04   -0.12122E-03   -0.48837E-04  2392   0.455E-02    0.329E-01
RMM:  11    -0.128235607555E+04    0.27365E-03   -0.19710E-04  2329   0.293E-02    0.141E-01
RMM:  12    -0.128235615354E+04   -0.77993E-04   -0.11184E-04  2200   0.218E-02    0.946E-02
RMM:  13    -0.128235618073E+04   -0.27192E-04   -0.52113E-05  2021   0.153E-02    0.813E-02
RMM:  14    -0.128235618461E+04   -0.38751E-05   -0.20926E-05  1817   0.102E-02    0.491E-02
RMM:  15    -0.128235619547E+04   -0.10860E-04   -0.11108E-05  1607   0.725E-03    0.348E-02
RMM:  16    -0.128235620615E+04   -0.10686E-04   -0.62035E-06  1537   0.565E-03    0.183E-02
RMM:  17    -0.128235621570E+04   -0.95474E-05   -0.31954E-06  1485   0.412E-03    0.197E-02
RMM:  18    -0.128235622609E+04   -0.10393E-04   -0.19831E-06  1432   0.323E-03    0.134E-02
RMM:  19    -0.128235623280E+04   -0.67096E-05   -0.15024E-06  1394   0.278E-03    0.133E-02
RMM:  20    -0.128235623962E+04   -0.68198E-05   -0.94996E-07  1317   0.219E-03    0.772E-03
RMM:  21    -0.128235624476E+04   -0.51391E-05   -0.50046E-07  1233   0.161E-03    0.456E-03
RMM:  22    -0.128235625108E+04   -0.63183E-05   -0.40147E-07  1173   0.125E-03    0.695E-03
RMM:  23    -0.128235625571E+04   -0.46335E-05   -0.34623E-07  1138   0.128E-03    0.494E-03
RMM:  24    -0.128235626241E+04   -0.67005E-05   -0.29412E-07  1167   0.989E-04    0.380E-03
RMM:  25    -0.128235626906E+04   -0.66447E-05   -0.28038E-07  1163   0.976E-04    0.221E-03
RMM:  26    -0.128235627250E+04   -0.34403E-05   -0.19835E-07  1028   0.747E-04    0.301E-03
RMM:  27    -0.128235627544E+04   -0.29387E-05   -0.15265E-07   956   0.680E-04    0.168E-03
RMM:  28    -0.128235627971E+04   -0.42754E-05   -0.15690E-07  1025   0.569E-04    0.101E-03
RMM:  29    -0.128235628363E+04   -0.39154E-05   -0.14991E-07   991   0.581E-04    0.117E-03
RMM:  30    -0.128235628584E+04   -0.22125E-05   -0.12797E-07   962   0.539E-04    0.138E-03
RMM:  31    -0.128235628720E+04   -0.13535E-05   -0.93878E-08   861   0.488E-04    0.599E-04
RMM:  32    -0.128235628853E+04   -0.13303E-05   -0.74550E-08   834   0.410E-04    0.503E-04
RMM:  33    -0.128235629007E+04   -0.15433E-05   -0.69767E-08   855   0.400E-04    0.334E-04
RMM:  34    -0.128235629228E+04   -0.22156E-05   -0.89312E-08   927   0.408E-04    0.320E-04
RMM:  35    -0.128235629385E+04   -0.15659E-05   -0.80449E-08   911   0.426E-04    0.284E-04
RMM:  36    -0.128235629472E+04   -0.87026E-06   -0.62593E-08   797   0.380E-04
  10 F= -.12916074E+04 E0= -.12915944E+04  d E =-.410843E-01  mag=    37.6199
       N       E                     dE             d eps       ncg     rms          rms(c)
DAV:   1    -0.128235724697E+04   -0.95312E-03   -0.53671E+00  2172   0.447E+00    0.786E-01
RMM:   2    -0.128237098400E+04   -0.13737E-01   -0.12625E-01  2571   0.707E-01    0.119E+00
RMM:   3    -0.128238059845E+04   -0.96145E-02   -0.27495E-02  2623   0.326E-01    0.190E+00
RMM:   4    -0.128237341904E+04    0.71794E-02   -0.11524E-02  2621   0.213E-01    0.136E+00
RMM:   5    -0.128237054389E+04    0.28752E-02   -0.44367E-03  2511   0.139E-01    0.608E-01
RMM:   6    -0.128237076854E+04   -0.22466E-03   -0.20166E-03  2493   0.867E-02    0.509E-01
RMM:   7    -0.128237077063E+04   -0.20843E-05   -0.11141E-03  2546   0.654E-02    0.352E-01
RMM:   8    -0.128237093744E+04   -0.16681E-03   -0.11455E-03  2458   0.659E-02    0.374E-01
RMM:   9    -0.128237078318E+04    0.15426E-03   -0.93194E-04  2447   0.596E-02    0.313E-01
RMM:  10    -0.128237077178E+04    0.11401E-04   -0.44635E-04  2429   0.442E-02    0.314E-01
RMM:  11    -0.128237056368E+04    0.20809E-03   -0.20170E-04  2371   0.288E-02    0.155E-01
RMM:  12    -0.128237062559E+04   -0.61909E-04   -0.11670E-04  2248   0.219E-02    0.955E-02
RMM:  13    -0.128237065265E+04   -0.27054E-04   -0.55154E-05  2021   0.163E-02    0.946E-02
RMM:  14    -0.128237064586E+04    0.67873E-05   -0.19597E-05  1846   0.961E-03    0.467E-02
RMM:  15    -0.128237066149E+04   -0.15626E-04   -0.10955E-05  1627   0.710E-03    0.312E-02
RMM:  16    -0.128237067768E+04   -0.16195E-04   -0.71733E-06  1573   0.591E-03    0.261E-02
RMM:  17    -0.128237069183E+04   -0.14152E-04   -0.42134E-06  1498   0.475E-03    0.212E-02
RMM:  18    -0.128237070470E+04   -0.12865E-04   -0.22353E-06  1430   0.345E-03    0.130E-02
RMM:  19    -0.128237071177E+04   -0.70727E-05   -0.11887E-06  1350   0.248E-03    0.114E-02
RMM:  20    -0.128237071712E+04   -0.53454E-05   -0.63847E-07  1271   0.186E-03    0.648E-03
RMM:  21    -0.128237072415E+04   -0.70349E-05   -0.36098E-07  1199   0.128E-03    0.500E-03
RMM:  22    -0.128237073693E+04   -0.12776E-04   -0.47782E-07  1226   0.133E-03    0.767E-03
RMM:  23    -0.128237074647E+04   -0.95376E-05   -0.49262E-07  1213   0.149E-03    0.582E-03
RMM:  24    -0.128237075573E+04   -0.92604E-05   -0.40764E-07  1166   0.116E-03    0.431E-03
RMM:  25    -0.128237076398E+04   -0.82514E-05   -0.33446E-07  1152   0.105E-03    0.237E-03
RMM:  26    -0.128237076757E+04   -0.35948E-05   -0.20571E-07  1023   0.752E-04    0.285E-03
RMM:  27    -0.128237077010E+04   -0.25272E-05   -0.13954E-07   924   0.652E-04    0.167E-03
RMM:  28    -0.128237077507E+04   -0.49690E-05   -0.13764E-07   968   0.537E-04    0.151E-03
RMM:  29    -0.128237078304E+04   -0.79700E-05   -0.20157E-07  1094   0.618E-04    0.116E-03
RMM:  30    -0.128237078922E+04   -0.61794E-05   -0.21653E-07  1060   0.642E-04    0.113E-03
RMM:  31    -0.128237079145E+04   -0.22301E-05   -0.15693E-07   932   0.592E-04    0.131E-03
RMM:  32    -0.128237079345E+04   -0.19997E-05   -0.12394E-07   883   0.496E-04    0.637E-04
RMM:  33    -0.128237079617E+04   -0.27267E-05   -0.12028E-07   929   0.474E-04    0.476E-04
RMM:  34    -0.128237079923E+04   -0.30536E-05   -0.13463E-07   954   0.471E-04    0.379E-04
RMM:  35    -0.128237080165E+04   -0.24223E-05   -0.13676E-07   970   0.488E-04    0.272E-04
RMM:  36    -0.128237080293E+04   -0.12806E-05   -0.11060E-07   896   0.450E-04    0.221E-04
RMM:  37    -0.128237080416E+04   -0.12310E-05   -0.96815E-08   877   0.428E-04    0.195E-04
RMM:  38    -0.128237080524E+04   -0.10755E-05   -0.97852E-08   909   0.427E-04    0.174E-04
RMM:  39    -0.128237080573E+04   -0.49240E-06   -0.75389E-08   845   0.409E-04
  11 F= -.12916252E+04 E0= -.12916121E+04  d E =-.178069E-01  mag=    37.6176
       N       E                     dE             d eps       ncg     rms          rms(c)
DAV:   1    -0.128236971065E+04    0.10946E-02   -0.41627E-01  2268   0.125E+00    0.220E-01
RMM:   2    -0.128237070750E+04   -0.99685E-03   -0.97414E-03  2559   0.198E-01    0.325E-01
RMM:   3    -0.128237158106E+04   -0.87357E-03   -0.21629E-03  2617   0.914E-02    0.676E-01
RMM:   4    -0.128237081741E+04    0.76365E-03   -0.98695E-04  2606   0.628E-02    0.395E-01
RMM:   5    -0.128237067136E+04    0.14605E-03   -0.40454E-04  2422   0.435E-02    0.183E-01
RMM:   6    -0.128237071398E+04   -0.42622E-04   -0.15484E-04  2313   0.238E-02    0.122E-01
RMM:   7    -0.128237074152E+04   -0.27544E-04   -0.92640E-05  2461   0.191E-02    0.105E-01
RMM:   8    -0.128237074565E+04   -0.41248E-05   -0.93169E-05  2241   0.186E-02    0.968E-02
RMM:   9    -0.128237074185E+04    0.38018E-05   -0.66987E-05  2219   0.166E-02    0.721E-02
RMM:  10    -0.128237074423E+04   -0.23877E-05   -0.35259E-05  1950   0.125E-02    0.642E-02
RMM:  11    -0.128237073610E+04    0.81361E-05   -0.13637E-05  1629   0.799E-03    0.327E-02
RMM:  12    -0.128237073915E+04   -0.30519E-05   -0.62112E-06  1521   0.548E-03    0.208E-02
RMM:  13    -0.128237074115E+04   -0.20041E-05   -0.25652E-06  1411   0.370E-03    0.142E-02
RMM:  14    -0.128237074284E+04   -0.16908E-05   -0.93801E-07  1323   0.242E-03    0.111E-02
RMM:  15    -0.128237074391E+04   -0.10705E-05   -0.55362E-07  1261   0.180E-03    0.824E-03
RMM:  16    -0.128237074575E+04   -0.18345E-05   -0.44691E-07  1253   0.158E-03    0.528E-03
RMM:  17    -0.128237074745E+04   -0.17028E-05   -0.28897E-07  1217   0.128E-03    0.486E-03
RMM:  18    -0.128237074862E+04   -0.11629E-05   -0.17583E-07  1151   0.969E-04    0.371E-03
RMM:  19    -0.128237074926E+04   -0.64610E-06   -0.10346E-07  1052   0.727E-04
  12 F= -.12916261E+04 E0= -.12916130E+04  d E =-.186681E-01  mag=    37.6173
       N       E                     dE             d eps       ncg     rms          rms(c)
DAV:   1    -0.128237315022E+04   -0.24016E-02   -0.32837E+00  2172   0.364E+00    0.561E-01
RMM:   2    -0.128238166603E+04   -0.85158E-02   -0.81190E-02  2648   0.549E-01    0.635E-01
RMM:   3    -0.128238692642E+04   -0.52604E-02   -0.13566E-02  2585   0.239E-01    0.124E+00
RMM:   4    -0.128238246955E+04    0.44569E-02   -0.50515E-03  2613   0.143E-01    0.731E-01
RMM:   5    -0.128238198017E+04    0.48937E-03   -0.15807E-03  2539   0.811E-02    0.374E-01
RMM:   6    -0.128238246616E+04   -0.48598E-03   -0.81503E-04  2505   0.541E-02    0.593E-01
RMM:   7    -0.128238202612E+04    0.44004E-03   -0.55852E-04  2543   0.447E-02    0.254E-01
RMM:   8    -0.128238222387E+04   -0.19774E-03   -0.64288E-04  2408   0.488E-02    0.242E-01
RMM:   9    -0.128238215797E+04    0.65893E-04   -0.33919E-04  2464   0.384E-02    0.191E-01
RMM:  10    -0.128238214371E+04    0.14266E-04   -0.19310E-04  2366   0.294E-02    0.177E-01
RMM:  11    -0.128238208173E+04    0.61977E-04   -0.81674E-05  2166   0.190E-02    0.804E-02
RMM:  12    -0.128238210247E+04   -0.20744E-04   -0.34491E-05  1939   0.121E-02    0.551E-02
RMM:  13    -0.128238210892E+04   -0.64504E-05   -0.17939E-05  1682   0.901E-03    0.467E-02
RMM:  14    -0.128238211215E+04   -0.32264E-05   -0.58646E-06  1549   0.561E-03    0.277E-02
RMM:  15    -0.128238211705E+04   -0.48981E-05   -0.37832E-06  1468   0.434E-03    0.138E-02
RMM:  16    -0.128238212428E+04   -0.72278E-05   -0.23340E-06  1425   0.335E-03    0.170E-02
RMM:  17    -0.128238212687E+04   -0.25955E-05   -0.13872E-06  1365   0.287E-03    0.989E-03
RMM:  18    -0.128238212979E+04   -0.29163E-05   -0.80494E-07  1302   0.199E-03    0.928E-03
RMM:  19    -0.128238213190E+04   -0.21078E-05   -0.46514E-07  1212   0.167E-03    0.528E-03
RMM:  20    -0.128238213449E+04   -0.25970E-05   -0.24024E-07  1151   0.102E-03    0.450E-03
RMM:  21    -0.128238213845E+04   -0.39594E-05   -0.21863E-07  1150   0.978E-04    0.322E-03
RMM:  22    -0.128238214223E+04   -0.37783E-05   -0.21726E-07  1137   0.960E-04    0.556E-03
RMM:  23    -0.128238214523E+04   -0.30023E-05   -0.18952E-07  1138   0.913E-04    0.339E-03
RMM:  24    -0.128238214819E+04   -0.29573E-05   -0.14085E-07  1063   0.708E-04    0.268E-03
RMM:  25    -0.128238214970E+04   -0.15120E-05   -0.93367E-08   947   0.622E-04    0.228E-03
RMM:  26    -0.128238215064E+04   -0.93599E-06   -0.53316E-08   800   0.453E-04
  13 F= -.12916387E+04 E0= -.12916257E+04  d E =-.125911E-01  mag=    37.6241
       N       E                     dE             d eps       ncg     rms          rms(c)
DAV:   1    -0.128237963579E+04    0.25139E-02   -0.15169E+00  2172   0.247E+00    0.378E-01
RMM:   2    -0.128238347560E+04   -0.38398E-02   -0.37396E-02  2646   0.373E-01    0.412E-01
RMM:   3    -0.128238588117E+04   -0.24056E-02   -0.61568E-03  2577   0.162E-01    0.873E-01
RMM:   4    -0.128238381445E+04    0.20667E-02   -0.22990E-03  2623   0.960E-02    0.476E-01
RMM:   5    -0.128238368338E+04    0.13107E-03   -0.72136E-04  2486   0.555E-02    0.249E-01
RMM:   6    -0.128238391844E+04   -0.23506E-03   -0.36918E-04  2460   0.361E-02    0.395E-01
RMM:   7    -0.128238370170E+04    0.21674E-03   -0.25432E-04  2506   0.310E-02    0.169E-01
RMM:   8    -0.128238381610E+04   -0.11440E-03   -0.29904E-04  2357   0.335E-02    0.168E-01
RMM:   9    -0.128238377335E+04    0.42749E-04   -0.15525E-04  2434   0.264E-02    0.115E-01
RMM:  10    -0.128238377501E+04   -0.16641E-05   -0.83730E-05  2192   0.191E-02    0.101E-01
RMM:  11    -0.128238375414E+04    0.20877E-04   -0.35810E-05  1940   0.127E-02    0.400E-02
RMM:  12    -0.128238376269E+04   -0.85564E-05   -0.82938E-06  1608   0.641E-03    0.254E-02
RMM:  13    -0.128238376662E+04   -0.39306E-05   -0.44034E-06  1522   0.491E-03    0.243E-02
RMM:  14    -0.128238377032E+04   -0.36998E-05   -0.20829E-06  1448   0.337E-03    0.123E-02
RMM:  15    -0.128238377399E+04   -0.36703E-05   -0.13850E-06  1359   0.269E-03    0.869E-03
RMM:  16    -0.128238377812E+04   -0.41286E-05   -0.98026E-07  1323   0.224E-03    0.109E-02
RMM:  17    -0.128238377983E+04   -0.17058E-05   -0.61308E-07  1270   0.193E-03    0.625E-03
RMM:  18    -0.128238378158E+04   -0.17533E-05   -0.35137E-07  1193   0.130E-03    0.450E-03
RMM:  19    -0.128238378317E+04   -0.15934E-05   -0.21623E-07  1115   0.105E-03    0.352E-03
RMM:  20    -0.128238378506E+04   -0.18860E-05   -0.12855E-07  1081   0.754E-04    0.321E-03
RMM:  21    -0.128238378826E+04   -0.32025E-05   -0.12410E-07  1115   0.723E-04    0.194E-03
RMM:  22    -0.128238379109E+04   -0.28286E-05   -0.12030E-07  1034   0.689E-04    0.362E-03
RMM:  23    -0.128238379326E+04   -0.21711E-05   -0.10423E-07   997   0.662E-04    0.222E-03
RMM:  24    -0.128238379500E+04   -0.17408E-05   -0.71300E-08   919   0.509E-04    0.127E-03
RMM:  25    -0.128238379600E+04   -0.99349E-06   -0.46289E-08   809   0.437E-04
  14 F= -.12916411E+04 E0= -.12916282E+04  d E =-.150461E-01  mag=    37.6299
       N       E                     dE             d eps       ncg     rms          rms(c)
DAV:   1    -0.128238115494E+04    0.26401E-02   -0.42415E+00  2160   0.413E+00    0.583E-01
RMM:   2    -0.128239117522E+04   -0.10020E-01   -0.10032E-01  2650   0.597E-01    0.716E-01
RMM:   3    -0.128239711090E+04   -0.59357E-02   -0.15610E-02  2567   0.259E-01    0.176E+00
RMM:   4    -0.128239232758E+04    0.47833E-02   -0.59984E-03  2675   0.149E-01    0.831E-01
RMM:   5    -0.128239141354E+04    0.91403E-03   -0.22216E-03  2482   0.971E-02    0.470E-01
RMM:   6    -0.128239176645E+04   -0.35291E-03   -0.10391E-03  2509   0.622E-02    0.457E-01
RMM:   7    -0.128239159735E+04    0.16910E-03   -0.58602E-04  2500   0.488E-02    0.242E-01
RMM:   8    -0.128239177523E+04   -0.17788E-03   -0.68173E-04  2431   0.515E-02    0.280E-01
RMM:   9    -0.128239173775E+04    0.37484E-04   -0.53851E-04  2457   0.475E-02    0.253E-01
RMM:  10    -0.128239159913E+04    0.13862E-03   -0.24753E-04  2408   0.331E-02    0.137E-01
RMM:  11    -0.128239162673E+04   -0.27594E-04   -0.12151E-04  2262   0.219E-02    0.108E-01
RMM:  12    -0.128239161463E+04    0.12091E-04   -0.45188E-05  1968   0.146E-02    0.415E-02
RMM:  13    -0.128239162810E+04   -0.13460E-04   -0.17359E-05  1685   0.837E-03    0.380E-02
RMM:  14    -0.128239163221E+04   -0.41105E-05   -0.60049E-06  1538   0.534E-03    0.254E-02
RMM:  15    -0.128239163785E+04   -0.56424E-05   -0.32149E-06  1472   0.407E-03    0.159E-02
RMM:  16    -0.128239164435E+04   -0.65006E-05   -0.21857E-06  1383   0.304E-03    0.148E-02
RMM:  17    -0.128239164925E+04   -0.48984E-05   -0.19229E-06  1347   0.292E-03    0.105E-02
RMM:  18    -0.128239165759E+04   -0.83436E-05   -0.10568E-06  1325   0.237E-03    0.764E-03
RMM:  19    -0.128239166297E+04   -0.53764E-05   -0.90396E-07  1314   0.211E-03    0.120E-02
RMM:  20    -0.128239166638E+04   -0.34090E-05   -0.58627E-07  1240   0.179E-03    0.549E-03
RMM:  21    -0.128239167008E+04   -0.37025E-05   -0.29218E-07  1165   0.113E-03    0.426E-03
RMM:  22    -0.128239167244E+04   -0.23638E-05   -0.19437E-07  1095   0.940E-04    0.340E-03
RMM:  23    -0.128239167624E+04   -0.37956E-05   -0.15785E-07  1098   0.754E-04    0.350E-03
RMM:  24    -0.128239167942E+04   -0.31776E-05   -0.13930E-07  1042   0.747E-04    0.243E-03
RMM:  25    -0.128239168363E+04   -0.42107E-05   -0.12871E-07   998   0.619E-04    0.166E-03
RMM:  26    -0.128239168716E+04   -0.35321E-05   -0.11382E-07   989   0.597E-04    0.159E-03
RMM:  27    -0.128239168932E+04   -0.21594E-05   -0.93189E-08   899   0.536E-04    0.187E-03
RMM:  28    -0.128239169207E+04   -0.27570E-05   -0.90082E-08   915   0.500E-04    0.948E-04
RMM:  29    -0.128239169512E+04   -0.30408E-05   -0.92401E-08   904   0.439E-04    0.572E-04
RMM:  30    -0.128239169754E+04   -0.24198E-05   -0.86569E-08   892   0.445E-04    0.972E-04
RMM:  31    -0.128239169929E+04   -0.17591E-05   -0.77949E-08   848   0.428E-04    0.810E-04
RMM:  32    -0.128239170208E+04   -0.27818E-05   -0.10345E-07   921   0.434E-04    0.443E-04
RMM:  33    -0.128239170402E+04   -0.19487E-05   -0.98213E-08   922   0.449E-04    0.303E-04
RMM:  34    -0.128239170528E+04   -0.12514E-05   -0.86376E-08   848   0.407E-04    0.235E-04
RMM:  35    -0.128239170629E+04   -0.10133E-05   -0.75407E-08   821   0.400E-04    0.303E-04
RMM:  36    -0.128239170725E+04   -0.96337E-06   -0.77471E-08   825   0.387E-04
  15 F= -.12916513E+04 E0= -.12916385E+04  d E =-.102014E-01  mag=    37.6330
       N       E                     dE             d eps       ncg     rms          rms(c)
DAV:   1    -0.128238895856E+04    0.27477E-02   -0.11719E+00  2208   0.217E+00    0.306E-01
RMM:   2    -0.128239163589E+04   -0.26773E-02   -0.27602E-02  2650   0.314E-01    0.374E-01
RMM:   3    -0.128239335225E+04   -0.17164E-02   -0.42965E-03  2575   0.136E-01    0.971E-01
RMM:   4    -0.128239171561E+04    0.16366E-02   -0.16524E-03  2668   0.794E-02    0.373E-01
RMM:   5    -0.128239175628E+04   -0.40665E-04   -0.56892E-04  2428   0.494E-02    0.245E-01
RMM:   6    -0.128239187057E+04   -0.11429E-03   -0.27698E-04  2425   0.322E-02    0.260E-01
RMM:   7    -0.128239180940E+04    0.61164E-04   -0.17362E-04  2477   0.266E-02    0.133E-01
RMM:   8    -0.128239185896E+04   -0.49558E-04   -0.18734E-04  2348   0.276E-02    0.139E-01
RMM:   9    -0.128239187663E+04   -0.17667E-04   -0.15983E-04  2401   0.256E-02    0.138E-01
RMM:  10    -0.128239182818E+04    0.48446E-04   -0.69762E-05  2164   0.179E-02    0.623E-02
RMM:  11    -0.128239183925E+04   -0.11063E-04   -0.30577E-05  1880   0.112E-02    0.545E-02
RMM:  12    -0.128239183735E+04    0.18919E-05   -0.10849E-05  1605   0.731E-03    0.205E-02
RMM:  13    -0.128239184107E+04   -0.37137E-05   -0.43183E-06  1469   0.438E-03    0.170E-02
RMM:  14    -0.128239184275E+04   -0.16797E-05   -0.15584E-06  1383   0.284E-03    0.129E-02
RMM:  15    -0.128239184443E+04   -0.16842E-05   -0.90242E-07  1308   0.228E-03    0.719E-03
RMM:  16    -0.128239184696E+04   -0.25307E-05   -0.68338E-07  1270   0.172E-03    0.751E-03
RMM:  17    -0.128239184849E+04   -0.15299E-05   -0.64773E-07  1266   0.166E-03    0.541E-03
RMM:  18    -0.128239185040E+04   -0.19041E-05   -0.28809E-07  1188   0.125E-03    0.378E-03
RMM:  19    -0.128239185144E+04   -0.10392E-05   -0.19617E-07  1116   0.990E-04    0.497E-03
RMM:  20    -0.128239185234E+04   -0.90068E-06   -0.12646E-07  1091   0.827E-04
  16 F= -.12916527E+04 E0= -.12916398E+04  d E =-.115532E-01  mag=    37.6340
       N       E                     dE             d eps       ncg     rms          rms(c)
DAV:   1    -0.128238873139E+04    0.31200E-02   -0.36076E+00  2160   0.383E+00    0.551E-01
RMM:   2    -0.128239635386E+04   -0.76225E-02   -0.84679E-02  2685   0.539E-01    0.584E-01
RMM:   3    -0.128240548844E+04   -0.91346E-02   -0.12174E-02  2568   0.231E-01    0.312E+00
RMM:   4    -0.128239265828E+04    0.12830E-01   -0.69834E-03  2578   0.176E-01    0.459E-01
RMM:   5    -0.128239679269E+04   -0.41344E-02   -0.31345E-03  2368   0.131E-01    0.422E-01
RMM:   6    -0.128239712636E+04   -0.33367E-03   -0.10629E-03  2519   0.643E-02    0.456E-01
RMM:   7    -0.128239686149E+04    0.26487E-03   -0.63229E-04  2408   0.513E-02    0.389E-01
RMM:   8    -0.128239684013E+04    0.21357E-04   -0.56802E-04  2427   0.478E-02    0.297E-01
RMM:   9    -0.128239681280E+04    0.27331E-04   -0.44127E-04  2441   0.449E-02    0.205E-01
RMM:  10    -0.128239681553E+04   -0.27298E-05   -0.23728E-04  2405   0.331E-02    0.182E-01
RMM:  11    -0.128239678073E+04    0.34801E-04   -0.99410E-05  2244   0.215E-02    0.115E-01
RMM:  12    -0.128239678376E+04   -0.30329E-05   -0.43945E-05  1934   0.136E-02    0.750E-02
RMM:  13    -0.128239679780E+04   -0.14035E-04   -0.18969E-05  1709   0.964E-03    0.439E-02
RMM:  14    -0.128239681152E+04   -0.13720E-04   -0.95373E-06  1600   0.698E-03    0.331E-02
RMM:  15    -0.128239681790E+04   -0.63823E-05   -0.51256E-06  1522   0.529E-03    0.191E-02
RMM:  16    -0.128239682569E+04   -0.77928E-05   -0.20602E-06  1448   0.342E-03    0.146E-02
RMM:  17    -0.128239682975E+04   -0.40568E-05   -0.17191E-06  1377   0.294E-03    0.146E-02
RMM:  18    -0.128239683661E+04   -0.68603E-05   -0.12684E-06  1366   0.259E-03    0.101E-02
RMM:  19    -0.128239684310E+04   -0.64928E-05   -0.97439E-07  1326   0.229E-03    0.917E-03
RMM:  20    -0.128239684791E+04   -0.48085E-05   -0.74999E-07  1285   0.197E-03    0.752E-03
RMM:  21    -0.128239685197E+04   -0.40609E-05   -0.37850E-07  1205   0.148E-03    0.400E-03
RMM:  22    -0.128239685410E+04   -0.21261E-05   -0.19129E-07  1117   0.928E-04    0.369E-03
RMM:  23    -0.128239685694E+04   -0.28424E-05   -0.14309E-07  1087   0.795E-04    0.335E-03
RMM:  24    -0.128239685937E+04   -0.24262E-05   -0.10595E-07   997   0.697E-04    0.256E-03
RMM:  25    -0.128239686421E+04   -0.48423E-05   -0.10875E-07  1024   0.597E-04    0.192E-03
RMM:  26    -0.128239686857E+04   -0.43582E-05   -0.10047E-07   980   0.581E-04    0.167E-03
RMM:  27    -0.128239687166E+04   -0.30869E-05   -0.96406E-08   944   0.573E-04    0.207E-03
RMM:  28    -0.128239687351E+04   -0.18568E-05   -0.72789E-08   882   0.525E-04    0.114E-03
RMM:  29    -0.128239687551E+04   -0.19956E-05   -0.56346E-08   826   0.415E-04    0.817E-04
RMM:  30    -0.128239687680E+04   -0.12942E-05   -0.42865E-08   778   0.391E-04    0.956E-04
RMM:  31    -0.128239687848E+04   -0.16749E-05   -0.41433E-08   759   0.367E-04    0.479E-04
RMM:  32    -0.128239688156E+04   -0.30828E-05   -0.67489E-08   884   0.382E-04    0.343E-04
RMM:  33    -0.128239688374E+04   -0.21778E-05   -0.67136E-08   903   0.402E-04    0.370E-04
RMM:  34    -0.128239688501E+04   -0.12756E-05   -0.52339E-08   789   0.369E-04    0.350E-04
RMM:  35    -0.128239688626E+04   -0.12513E-05   -0.54596E-08   800   0.362E-04    0.348E-04
RMM:  36    -0.128239688746E+04   -0.12000E-05   -0.56573E-08   807   0.370E-04    0.250E-04
RMM:  37    -0.128239688839E+04   -0.93003E-06   -0.56832E-08   791   0.371E-04
  17 F= -.12916613E+04 E0= -.12916485E+04  d E =-.857225E-02  mag=    37.6375
       N       E                     dE             d eps       ncg     rms          rms(c)
DAV:   1    -0.128239195108E+04    0.49364E-02   -0.18454E+00  2184   0.274E+00    0.394E-01
RMM:   2    -0.128239577479E+04   -0.38237E-02   -0.43165E-02  2677   0.385E-01    0.420E-01
RMM:   3    -0.128240016416E+04   -0.43894E-02   -0.62408E-03  2563   0.166E-01    0.202E+00
RMM:   4    -0.128239425781E+04    0.59064E-02   -0.33485E-03  2609   0.121E-01    0.323E-01
RMM:   5    -0.128239609114E+04   -0.18333E-02   -0.14249E-03  2375   0.878E-02    0.331E-01
RMM:   6    -0.128239622702E+04   -0.13588E-03   -0.55377E-04  2471   0.450E-02    0.370E-01
RMM:   7    -0.128239603788E+04    0.18914E-03   -0.33243E-04  2422   0.384E-02    0.223E-01
RMM:   8    -0.128239608730E+04   -0.49418E-04   -0.29796E-04  2419   0.355E-02    0.189E-01
RMM:   9    -0.128239607323E+04    0.14068E-04   -0.21748E-04  2427   0.312E-02    0.147E-01
RMM:  10    -0.128239607751E+04   -0.42841E-05   -0.11610E-04  2309   0.233E-02    0.140E-01
RMM:  11    -0.128239605054E+04    0.26970E-04   -0.48206E-05  2000   0.152E-02    0.795E-02
RMM:  12    -0.128239605767E+04   -0.71245E-05   -0.20463E-05  1695   0.951E-03    0.468E-02
RMM:  13    -0.128239606767E+04   -0.10003E-04   -0.93670E-06  1591   0.712E-03    0.291E-02
RMM:  14    -0.128239607468E+04   -0.70084E-05   -0.46327E-06  1511   0.507E-03    0.215E-02
RMM:  15    -0.128239607789E+04   -0.32120E-05   -0.24805E-06  1461   0.381E-03    0.135E-02
RMM:  16    -0.128239608169E+04   -0.38048E-05   -0.10697E-06  1338   0.256E-03    0.103E-02
RMM:  17    -0.128239608371E+04   -0.20201E-05   -0.96143E-07  1299   0.223E-03    0.102E-02
RMM:  18    -0.128239608732E+04   -0.36068E-05   -0.66847E-07  1286   0.190E-03    0.702E-03
RMM:  19    -0.128239609034E+04   -0.30204E-05   -0.51657E-07  1253   0.170E-03    0.693E-03
RMM:  20    -0.128239609253E+04   -0.21926E-05   -0.38201E-07  1212   0.142E-03    0.524E-03
RMM:  21    -0.128239609440E+04   -0.18628E-05   -0.18887E-07  1117   0.104E-03    0.278E-03
RMM:  22    -0.128239609555E+04   -0.11544E-05   -0.99532E-08  1038   0.674E-04    0.275E-03
RMM:  23    -0.128239609701E+04   -0.14586E-05   -0.74225E-08   940   0.607E-04    0.241E-03
RMM:  24    -0.128239609833E+04   -0.13161E-05   -0.55957E-08   884   0.536E-04    0.185E-03
RMM:  25    -0.128239610079E+04   -0.24642E-05   -0.59348E-08   946   0.483E-04    0.137E-03
RMM:  26    -0.128239610281E+04   -0.20234E-05   -0.51513E-08   889   0.450E-04    0.114E-03
RMM:  27    -0.128239610416E+04   -0.13493E-05   -0.43326E-08   808   0.436E-04    0.137E-03
RMM:  28    -0.128239610493E+04   -0.77091E-06   -0.31708E-08   744   0.400E-04
  18 F= -.12916630E+04 E0= -.12916503E+04  d E =-.103230E-01  mag=    37.6398
       N       E                     dE             d eps       ncg     rms          rms(c)
DAV:   1    -0.128239055223E+04    0.55519E-02   -0.44654E+00  2160   0.425E+00    0.628E-01
RMM:   2    -0.128240147076E+04   -0.10919E-01   -0.10721E-01  2671   0.606E-01    0.900E-01
RMM:   3    -0.128241325292E+04   -0.11782E-01   -0.16422E-02  2560   0.272E-01    0.352E+00
RMM:   4    -0.128239595849E+04    0.17294E-01   -0.91366E-03  2555   0.211E-01    0.457E-01
RMM:   5    -0.128240120179E+04   -0.52433E-02   -0.34943E-03  2395   0.139E-01    0.528E-01
RMM:   6    -0.128240149937E+04   -0.29758E-03   -0.11756E-03  2527   0.715E-02    0.473E-01
RMM:   7    -0.128240120833E+04    0.29104E-03   -0.76876E-04  2434   0.567E-02    0.332E-01
RMM:   8    -0.128240134863E+04   -0.14030E-03   -0.70191E-04  2430   0.544E-02    0.314E-01
RMM:   9    -0.128240128358E+04    0.65046E-04   -0.43881E-04  2468   0.445E-02    0.255E-01
RMM:  10    -0.128240128044E+04    0.31483E-05   -0.25396E-04  2320   0.329E-02    0.253E-01
RMM:  11    -0.128240118402E+04    0.96414E-04   -0.11537E-04  2220   0.215E-02    0.150E-01
RMM:  12    -0.128240120341E+04   -0.19389E-04   -0.54569E-05  2009   0.152E-02    0.766E-02
RMM:  13    -0.128240122830E+04   -0.24886E-04   -0.29408E-05  1895   0.116E-02    0.494E-02
RMM:  14    -0.128240125350E+04   -0.25202E-04   -0.16020E-05  1695   0.870E-03    0.410E-02
RMM:  15    -0.128240126126E+04   -0.77611E-05   -0.98947E-06  1584   0.717E-03    0.236E-02
RMM:  16    -0.128240127074E+04   -0.94777E-05   -0.36276E-06  1485   0.447E-03    0.179E-02
RMM:  17    -0.128240127475E+04   -0.40110E-05   -0.21539E-06  1430   0.333E-03    0.152E-02
RMM:  18    -0.128240128211E+04   -0.73665E-05   -0.14111E-06  1414   0.272E-03    0.123E-02
RMM:  19    -0.128240129183E+04   -0.97147E-05   -0.12184E-06  1363   0.249E-03    0.122E-02
RMM:  20    -0.128240129945E+04   -0.76219E-05   -0.10265E-06  1311   0.234E-03    0.793E-03
RMM:  21    -0.128240130798E+04   -0.85335E-05   -0.49804E-07  1226   0.162E-03    0.506E-03
RMM:  22    -0.128240131174E+04   -0.37572E-05   -0.33258E-07  1162   0.129E-03    0.496E-03
RMM:  23    -0.128240131596E+04   -0.42154E-05   -0.23209E-07  1131   0.100E-03    0.509E-03
RMM:  24    -0.128240131819E+04   -0.22340E-05   -0.14343E-07  1062   0.838E-04    0.379E-03
RMM:  25    -0.128240132273E+04   -0.45440E-05   -0.10478E-07   971   0.562E-04    0.302E-03
RMM:  26    -0.128240132751E+04   -0.47748E-05   -0.11080E-07   982   0.631E-04    0.347E-03
RMM:  27    -0.128240133181E+04   -0.42975E-05   -0.11539E-07   958   0.639E-04    0.186E-03
RMM:  28    -0.128240133641E+04   -0.46008E-05   -0.10183E-07   947   0.509E-04    0.120E-03
RMM:  29    -0.128240133821E+04   -0.18035E-05   -0.70107E-08   856   0.465E-04    0.127E-03
RMM:  30    -0.128240133948E+04   -0.12662E-05   -0.49512E-08   757   0.398E-04    0.769E-04
RMM:  31    -0.128240134143E+04   -0.19534E-05   -0.45767E-08   763   0.368E-04    0.567E-04
RMM:  32    -0.128240134448E+04   -0.30469E-05   -0.64330E-08   846   0.376E-04    0.450E-04
RMM:  33    -0.128240134732E+04   -0.28468E-05   -0.74195E-08   913   0.407E-04    0.440E-04
RMM:  34    -0.128240134921E+04   -0.18807E-05   -0.69206E-08   843   0.391E-04    0.497E-04
RMM:  35    -0.128240135068E+04   -0.14748E-05   -0.64319E-08   826   0.383E-04    0.397E-04
RMM:  36    -0.128240135204E+04   -0.13592E-05   -0.68813E-08   845   0.380E-04    0.223E-04
RMM:  37    -0.128240135288E+04   -0.84419E-06   -0.58872E-08   811   0.380E-04
  19 F= -.12916708E+04 E0= -.12916582E+04  d E =-.780764E-02  mag=    37.6421
       N       E                     dE             d eps       ncg     rms          rms(c)
DAV:   1    -0.128239897052E+04    0.23815E-02   -0.84752E-01  2220   0.185E+00    0.271E-01
RMM:   2    -0.128240098671E+04   -0.20162E-02   -0.20289E-02  2673   0.264E-01    0.423E-01
RMM:   3    -0.128240281383E+04   -0.18271E-02   -0.30473E-03  2561   0.117E-01    0.126E+00
RMM:   4    -0.128240018975E+04    0.26241E-02   -0.14821E-03  2593   0.845E-02    0.180E-01
RMM:   5    -0.128240095194E+04   -0.76219E-03   -0.48460E-04  2383   0.513E-02    0.212E-01
RMM:   6    -0.128240103099E+04   -0.79054E-04   -0.22947E-04  2452   0.301E-02    0.225E-01
RMM:   7    -0.128240095307E+04    0.77926E-04   -0.14997E-04  2325   0.259E-02    0.138E-01
RMM:   8    -0.128240099790E+04   -0.44837E-04   -0.13597E-04  2332   0.239E-02    0.125E-01
RMM:   9    -0.128240099894E+04   -0.10321E-05   -0.81903E-05  2250   0.192E-02    0.116E-01
RMM:  10    -0.128240097617E+04    0.22767E-04   -0.37318E-05  1947   0.132E-02    0.945E-02
RMM:  11    -0.128240097812E+04   -0.19490E-05   -0.18436E-05  1690   0.895E-03    0.503E-02
RMM:  12    -0.128240098345E+04   -0.53343E-05   -0.89332E-06  1583   0.670E-03    0.234E-02
RMM:  13    -0.128240099134E+04   -0.78896E-05   -0.49592E-06  1511   0.511E-03    0.207E-02
RMM:  14    -0.128240099553E+04   -0.41934E-05   -0.26507E-06  1453   0.391E-03    0.158E-02
RMM:  15    -0.128240099736E+04   -0.18206E-05   -0.15188E-06  1385   0.298E-03    0.931E-03
RMM:  16    -0.128240099940E+04   -0.20462E-05   -0.59336E-07  1271   0.192E-03    0.721E-03
RMM:  17    -0.128240100039E+04   -0.98343E-06   -0.43019E-07  1251   0.153E-03
  20 F= -.12916716E+04 E0= -.12916590E+04  d E =-.857297E-02  mag=    37.6429
       N       E                     dE             d eps       ncg     rms          rms(c)
DAV:   1    -0.128239587982E+04    0.51196E-02   -0.47936E+00  2160   0.443E+00    0.596E-01
RMM:   2    -0.128240753988E+04   -0.11660E-01   -0.11097E-01  2641   0.624E-01    0.772E-01
RMM:   3    -0.128241835590E+04   -0.10816E-01   -0.16193E-02  2576   0.265E-01    0.347E+00
RMM:   4    -0.128240279176E+04    0.15564E-01   -0.87993E-03  2565   0.200E-01    0.505E-01
RMM:   5    -0.128240762504E+04   -0.48333E-02   -0.35277E-03  2388   0.142E-01    0.389E-01
RMM:   6    -0.128240800573E+04   -0.38069E-03   -0.92577E-04  2554   0.625E-02    0.424E-01
RMM:   7    -0.128240794167E+04    0.64067E-04   -0.67715E-04  2431   0.528E-02    0.420E-01
RMM:   8    -0.128240795798E+04   -0.16315E-04   -0.69899E-04  2386   0.527E-02    0.346E-01
RMM:   9    -0.128240790797E+04    0.50016E-04   -0.52668E-04  2447   0.483E-02    0.271E-01
RMM:  10    -0.128240781563E+04    0.92335E-04   -0.26040E-04  2329   0.349E-02    0.223E-01
RMM:  11    -0.128240781314E+04    0.24928E-05   -0.99115E-05  2222   0.207E-02    0.152E-01
RMM:  12    -0.128240780160E+04    0.11536E-04   -0.58003E-05  1995   0.158E-02    0.853E-02
RMM:  13    -0.128240782784E+04   -0.26238E-04   -0.27299E-05  1899   0.111E-02    0.546E-02
RMM:  14    -0.128240784256E+04   -0.14717E-04   -0.15498E-05  1658   0.866E-03    0.401E-02
RMM:  15    -0.128240785273E+04   -0.10171E-04   -0.76505E-06  1568   0.629E-03    0.243E-02
RMM:  16    -0.128240785937E+04   -0.66421E-05   -0.38532E-06  1481   0.446E-03    0.201E-02
RMM:  17    -0.128240786395E+04   -0.45841E-05   -0.19701E-06  1427   0.325E-03    0.148E-02
RMM:  18    -0.128240787028E+04   -0.63252E-05   -0.14697E-06  1395   0.267E-03    0.159E-02
RMM:  19    -0.128240787831E+04   -0.80289E-05   -0.14135E-06  1380   0.269E-03    0.112E-02
RMM:  20    -0.128240788680E+04   -0.84873E-05   -0.99768E-07  1288   0.226E-03    0.774E-03
RMM:  21    -0.128240789240E+04   -0.56075E-05   -0.57343E-07  1210   0.170E-03    0.525E-03
RMM:  22    -0.128240789608E+04   -0.36723E-05   -0.33049E-07  1174   0.129E-03    0.484E-03
RMM:  23    -0.128240789871E+04   -0.26304E-05   -0.19861E-07  1116   0.966E-04    0.446E-03
RMM:  24    -0.128240790105E+04   -0.23487E-05   -0.12101E-07  1068   0.749E-04    0.332E-03
RMM:  25    -0.128240790452E+04   -0.34707E-05   -0.79200E-08   942   0.525E-04    0.229E-03
RMM:  26    -0.128240791019E+04   -0.56633E-05   -0.10599E-07  1014   0.588E-04    0.288E-03
RMM:  27    -0.128240791357E+04   -0.33787E-05   -0.10596E-07   998   0.676E-04    0.182E-03
RMM:  28    -0.128240791786E+04   -0.42976E-05   -0.89313E-08   912   0.490E-04    0.116E-03
RMM:  29    -0.128240791993E+04   -0.20612E-05   -0.64503E-08   885   0.468E-04    0.128E-03
RMM:  30    -0.128240792131E+04   -0.13800E-05   -0.45592E-08   761   0.394E-04    0.879E-04
RMM:  31    -0.128240792312E+04   -0.18112E-05   -0.39627E-08   752   0.372E-04    0.589E-04
RMM:  32    -0.128240792649E+04   -0.33700E-05   -0.66923E-08   870   0.372E-04    0.456E-04
RMM:  33    -0.128240792943E+04   -0.29477E-05   -0.72135E-08   930   0.413E-04    0.469E-04
RMM:  34    -0.128240793119E+04   -0.17540E-05   -0.62976E-08   824   0.379E-04    0.454E-04
RMM:  35    -0.128240793272E+04   -0.15265E-05   -0.65290E-08   835   0.383E-04    0.370E-04
RMM:  36    -0.128240793383E+04   -0.11192E-05   -0.66202E-08   875   0.379E-04    0.189E-04
RMM:  37    -0.128240793450E+04   -0.66078E-06   -0.49653E-08   769   0.366E-04
  21 F= -.12916791E+04 E0= -.12916664E+04  d E =-.749474E-02  mag=    37.6428
       N       E                     dE             d eps       ncg     rms          rms(c)
DAV:   1    -0.128240481627E+04    0.31176E-02   -0.15744E+00  2172   0.254E+00    0.341E-01
RMM:   2    -0.128240859582E+04   -0.37795E-02   -0.36358E-02  2652   0.357E-01    0.480E-01
RMM:   3    -0.128241176499E+04   -0.31692E-02   -0.53041E-03  2588   0.151E-01    0.172E+00
RMM:   4    -0.128240742723E+04    0.43378E-02   -0.26153E-03  2589   0.109E-01    0.307E-01
RMM:   5    -0.128240863544E+04   -0.12082E-02   -0.93345E-04  2401   0.719E-02    0.250E-01
RMM:   6    -0.128240878983E+04   -0.15438E-03   -0.33820E-04  2463   0.358E-02    0.277E-01
RMM:   7    -0.128240867926E+04    0.11057E-03   -0.22429E-04  2430   0.318E-02    0.170E-01
RMM:   8    -0.128240874807E+04   -0.68819E-04   -0.23599E-04  2376   0.311E-02    0.170E-01
RMM:   9    -0.128240875638E+04   -0.83010E-05   -0.16528E-04  2435   0.268E-02    0.166E-01
RMM:  10    -0.128240870316E+04    0.53215E-04   -0.83582E-05  2145   0.198E-02    0.125E-01
RMM:  11    -0.128240870869E+04   -0.55341E-05   -0.36781E-05  1925   0.125E-02    0.856E-02
RMM:  12    -0.128240870543E+04    0.32653E-05   -0.17557E-05  1670   0.901E-03    0.362E-02
RMM:  13    -0.128240871843E+04   -0.13005E-04   -0.75702E-06  1583   0.634E-03    0.265E-02
RMM:  14    -0.128240872399E+04   -0.55597E-05   -0.45620E-06  1513   0.503E-03    0.217E-02
RMM:  15    -0.128240872705E+04   -0.30525E-05   -0.21309E-06  1451   0.351E-03    0.121E-02
RMM:  16    -0.128240872945E+04   -0.24077E-05   -0.11905E-06  1319   0.257E-03    0.104E-02
RMM:  17    -0.128240873111E+04   -0.16524E-05   -0.63085E-07  1251   0.193E-03    0.696E-03
RMM:  18    -0.128240873340E+04   -0.22972E-05   -0.49224E-07  1199   0.159E-03    0.879E-03
RMM:  19    -0.128240873601E+04   -0.26077E-05   -0.43637E-07  1181   0.158E-03    0.659E-03
RMM:  20    -0.128240873867E+04   -0.26624E-05   -0.30129E-07  1159   0.125E-03    0.431E-03
RMM:  21    -0.128240874059E+04   -0.19129E-05   -0.17992E-07  1111   0.948E-04    0.267E-03
RMM:  22    -0.128240874196E+04   -0.13701E-05   -0.10779E-07  1067   0.719E-04    0.271E-03
RMM:  23    -0.128240874287E+04   -0.91267E-06   -0.61364E-08   910   0.560E-04
  22 F= -.12916802E+04 E0= -.12916675E+04  d E =-.862582E-02  mag=    37.6429
       N       E                     dE             d eps       ncg     rms          rms(c)
DAV:   1    -0.128240233350E+04    0.64085E-02   -0.47215E+00  2172   0.443E+00    0.594E-01
RMM:   2    -0.128241381320E+04   -0.11480E-01   -0.10782E-01  2629   0.623E-01    0.768E-01
RMM:   3    -0.128242359123E+04   -0.97780E-02   -0.15975E-02  2574   0.266E-01    0.333E+00
RMM:   4    -0.128240963079E+04    0.13960E-01   -0.86032E-03  2604   0.195E-01    0.575E-01
RMM:   5    -0.128241389555E+04   -0.42648E-02   -0.35981E-03  2401   0.142E-01    0.421E-01
RMM:   6    -0.128241437070E+04   -0.47515E-03   -0.10268E-03  2572   0.630E-02    0.525E-01
RMM:   7    -0.128241395253E+04    0.41817E-03   -0.67242E-04  2442   0.530E-02    0.359E-01
RMM:   8    -0.128241417242E+04   -0.21989E-03   -0.77041E-04  2407   0.549E-02    0.326E-01
RMM:   9    -0.128241406378E+04    0.10864E-03   -0.57628E-04  2438   0.495E-02    0.279E-01
RMM:  10    -0.128241399996E+04    0.63822E-04   -0.27657E-04  2345   0.351E-02    0.249E-01
RMM:  11    -0.128241394819E+04    0.51773E-04   -0.11715E-04  2224   0.229E-02    0.169E-01
RMM:  12    -0.128241395393E+04   -0.57445E-05   -0.60984E-05  2012   0.161E-02    0.106E-01
RMM:  13    -0.128241396648E+04   -0.12546E-04   -0.28929E-05  1920   0.118E-02    0.526E-02
RMM:  14    -0.128241398673E+04   -0.20246E-04   -0.15056E-05  1682   0.846E-03    0.404E-02
RMM:  15    -0.128241399703E+04   -0.10303E-04   -0.72552E-06  1568   0.630E-03    0.214E-02
RMM:  16    -0.128241400248E+04   -0.54507E-05   -0.35334E-06  1477   0.429E-03    0.168E-02
RMM:  17    -0.128241400644E+04   -0.39649E-05   -0.11943E-06  1367   0.269E-03    0.121E-02
RMM:  18    -0.128241400901E+04   -0.25658E-05   -0.80908E-07  1307   0.210E-03    0.126E-02
RMM:  19    -0.128241401553E+04   -0.65154E-05   -0.83021E-07  1283   0.209E-03    0.102E-02
RMM:  20    -0.128241402240E+04   -0.68718E-05   -0.87925E-07  1268   0.204E-03    0.745E-03
RMM:  21    -0.128241402826E+04   -0.58636E-05   -0.61893E-07  1242   0.176E-03    0.656E-03
RMM:  22    -0.128241403174E+04   -0.34767E-05   -0.41657E-07  1183   0.145E-03    0.672E-03
RMM:  23    -0.128241403396E+04   -0.22183E-05   -0.25178E-07  1132   0.111E-03    0.466E-03
RMM:  24    -0.128241403642E+04   -0.24681E-05   -0.14808E-07  1100   0.817E-04    0.357E-03
[...]
RMM:   2    -0.128268749451E+04   -0.30702E-02   -0.31917E-02  2444   0.337E-01    0.319E-01
RMM:   3    -0.128268886803E+04   -0.13735E-02   -0.43861E-03  2353   0.162E-01    0.751E-01
RMM:   4    -0.128268825361E+04    0.61442E-03   -0.18247E-03  2752   0.854E-02    0.739E-01
RMM:   5    -0.128268746583E+04    0.78778E-03   -0.67640E-04  2381   0.575E-02    0.148E-01
RMM:   6    -0.128268781847E+04   -0.35264E-03   -0.28902E-04  2380   0.346E-02    0.247E-01
RMM:   7    -0.128268774331E+04    0.75155E-04   -0.15393E-04  2473   0.251E-02    0.136E-01
RMM:   8    -0.128268780165E+04   -0.58341E-04   -0.14505E-04  2330   0.242E-02    0.138E-01
RMM:   9    -0.128268785175E+04   -0.50098E-04   -0.12604E-04  2403   0.226E-02    0.151E-01
RMM:  10    -0.128268780241E+04    0.49345E-04   -0.68962E-05  2115   0.180E-02    0.913E-02
RMM:  11    -0.128268781609E+04   -0.13680E-04   -0.27521E-05  1876   0.108E-02    0.530E-02
RMM:  12    -0.128268781784E+04   -0.17557E-05   -0.11304E-05  1607   0.757E-03    0.249E-02
RMM:  13    -0.128268782500E+04   -0.71580E-05   -0.55478E-06  1536   0.541E-03    0.267E-02
RMM:  14    -0.128268782542E+04   -0.41343E-06   -0.23927E-06  1423   0.381E-03
 229 F= -.12920005E+04 E0= -.12919880E+04  d E =-.116260E-02  mag=    37.8963
       N       E                     dE             d eps       ncg     rms          rms(c)
DAV:   1    -0.128268595811E+04    0.18669E-02   -0.11582E+00  2160   0.225E+00    0.281E-01
RMM:   2    -0.128268862599E+04   -0.26679E-02   -0.26630E-02  2435   0.306E-01    0.464E-01
RMM:   3    -0.128269145322E+04   -0.28272E-02   -0.38104E-03  2366   0.147E-01    0.181E+00
RMM:   4    -0.128268758581E+04    0.38674E-02   -0.27294E-03  2646   0.112E-01    0.464E-01
RMM:   5    -0.128268854924E+04   -0.96343E-03   -0.10584E-03  2360   0.777E-02    0.113E-01
RMM:   6    -0.128268881060E+04   -0.26136E-03   -0.24039E-04  2528   0.308E-02    0.164E-01
RMM:   7    -0.128268879071E+04    0.19893E-04   -0.12324E-04  2347   0.230E-02    0.134E-01
RMM:   8    -0.128268886699E+04   -0.76277E-04   -0.13427E-04  2288   0.217E-02    0.184E-01
RMM:   9    -0.128268884813E+04    0.18860E-04   -0.98156E-05  2317   0.202E-02    0.142E-01
RMM:  10    -0.128268882819E+04    0.19941E-04   -0.52977E-05  2036   0.157E-02    0.843E-02
RMM:  11    -0.128268884095E+04   -0.12767E-04   -0.22506E-05  1834   0.102E-02    0.648E-02
RMM:  12    -0.128268883887E+04    0.20794E-05   -0.91448E-06  1586   0.678E-03    0.382E-02
RMM:  13    -0.128268884397E+04   -0.50934E-05   -0.35689E-06  1501   0.418E-03    0.223E-02
RMM:  14    -0.128268884730E+04   -0.33344E-05   -0.19461E-06  1427   0.338E-03    0.106E-02
RMM:  15    -0.128268885023E+04   -0.29309E-05   -0.78661E-07  1291   0.230E-03    0.863E-03
RMM:  16    -0.128268885279E+04   -0.25595E-05   -0.50883E-07  1252   0.173E-03    0.806E-03
RMM:  17    -0.128268885398E+04   -0.11925E-05   -0.39812E-07  1248   0.154E-03    0.573E-03
RMM:  18    -0.128268885606E+04   -0.20735E-05   -0.22394E-07  1185   0.107E-03    0.249E-03
RMM:  19    -0.128268885756E+04   -0.14989E-05   -0.14170E-07  1088   0.783E-04    0.202E-03
RMM:  20    -0.128268885861E+04   -0.10526E-05   -0.92169E-08   962   0.635E-04    0.245E-03
RMM:  21    -0.128268885957E+04   -0.96537E-06   -0.66571E-08   900   0.553E-04
 230 F= -.12920013E+04 E0= -.12919889E+04  d E =-.798386E-03  mag=    37.8980
       N       E                     dE             d eps       ncg     rms          rms(c)
DAV:   1    -0.128268809474E+04    0.76387E-03   -0.45224E-01  2160   0.141E+00    0.175E-01
RMM:   2    -0.128268907733E+04   -0.98259E-03   -0.10373E-02  2438   0.191E-01    0.246E-01
RMM:   3    -0.128269026413E+04   -0.11868E-02   -0.14892E-03  2362   0.928E-02    0.110E+00
RMM:   4    -0.128268868354E+04    0.15806E-02   -0.10043E-03  2635   0.670E-02    0.280E-01
RMM:   5    -0.128268908477E+04   -0.40123E-03   -0.40186E-04  2311   0.480E-02    0.690E-02
RMM:   6    -0.128268919651E+04   -0.11173E-03   -0.90152E-05  2408   0.189E-02    0.110E-01
RMM:   7    -0.128268918648E+04    0.10030E-04   -0.46281E-05  2065   0.141E-02    0.911E-02
RMM:   8    -0.128268921570E+04   -0.29222E-04   -0.54173E-05  2071   0.141E-02    0.101E-01
RMM:   9    -0.128268921321E+04    0.24923E-05   -0.37917E-05  2047   0.130E-02    0.760E-02
RMM:  10    -0.128268921030E+04    0.29104E-05   -0.19506E-05  1764   0.958E-03    0.519E-02
RMM:  11    -0.128268921272E+04   -0.24271E-05   -0.92128E-06  1600   0.671E-03    0.366E-02
RMM:  12    -0.128268921362E+04   -0.89460E-06   -0.35755E-06  1477   0.457E-03
 231 F= -.12920015E+04 E0= -.12919890E+04  d E =-.100443E-02  mag=    37.8989
       N       E                     dE             d eps       ncg     rms          rms(c)
DAV:   1    -0.128268477252E+04    0.44402E-02   -0.18084E+00  2160   0.281E+00    0.351E-01
RMM:   2    -0.128268894252E+04   -0.41700E-02   -0.41558E-02  2439   0.382E-01    0.562E-01
RMM:   3    -0.128269369809E+04   -0.47556E-02   -0.59509E-03  2370   0.184E-01    0.240E+00
RMM:   4    -0.128268706024E+04    0.66378E-02   -0.43997E-03  2638   0.143E-01    0.568E-01
RMM:   5    -0.128268881336E+04   -0.17531E-02   -0.16972E-03  2369   0.988E-02    0.141E-01
RMM:   6    -0.128268922756E+04   -0.41420E-03   -0.37479E-04  2556   0.388E-02    0.198E-01
RMM:   7    -0.128268920758E+04    0.19983E-04   -0.19289E-04  2396   0.287E-02    0.162E-01
RMM:   8    -0.128268930774E+04   -0.10017E-03   -0.20795E-04  2428   0.280E-02    0.192E-01
RMM:   9    -0.128268927791E+04    0.29828E-04   -0.13560E-04  2355   0.238E-02    0.164E-01
RMM:  10    -0.128268926166E+04    0.16250E-04   -0.68624E-05  2093   0.170E-02    0.132E-01
RMM:  11    -0.128268925817E+04    0.34924E-05   -0.40756E-05  1951   0.137E-02    0.866E-02
RMM:  12    -0.128268926195E+04   -0.37739E-05   -0.15496E-05  1663   0.840E-03    0.545E-02
RMM:  13    -0.128268926719E+04   -0.52428E-05   -0.56745E-06  1546   0.553E-03    0.275E-02
RMM:  14    -0.128268927345E+04   -0.62660E-05   -0.30160E-06  1487   0.406E-03    0.173E-02
RMM:  15    -0.128268927663E+04   -0.31780E-05   -0.16231E-06  1413   0.329E-03    0.107E-02
RMM:  16    -0.128268928014E+04   -0.35067E-05   -0.73670E-07  1287   0.210E-03    0.741E-03
RMM:  17    -0.128268928250E+04   -0.23576E-05   -0.58927E-07  1269   0.182E-03    0.796E-03
RMM:  18    -0.128268928412E+04   -0.16228E-05   -0.39916E-07  1222   0.144E-03    0.477E-03
RMM:  19    -0.128268928610E+04   -0.19786E-05   -0.22139E-07  1153   0.103E-03    0.295E-03
RMM:  20    -0.128268928752E+04   -0.14195E-05   -0.13825E-07  1057   0.750E-04    0.355E-03
RMM:  21    -0.128268928868E+04   -0.11625E-05   -0.99427E-08   965   0.674E-04    0.171E-03
RMM:  22    -0.128268929024E+04   -0.15599E-05   -0.76371E-08   865   0.502E-04    0.144E-03
RMM:  23    -0.128268929128E+04   -0.10409E-05   -0.67253E-08   844   0.519E-04    0.127E-03
RMM:  24    -0.128268929223E+04   -0.94441E-06   -0.51262E-08   795   0.421E-04
 232 F= -.12920013E+04 E0= -.12919889E+04  d E =-.785379E-03  mag=    37.9013
       N       E                     dE             d eps       ncg     rms          rms(c)
DAV:   1    -0.128268684779E+04    0.24435E-02   -0.99302E-01  2160   0.208E+00    0.259E-01
RMM:   2    -0.128268902739E+04   -0.21796E-02   -0.22754E-02  2436   0.283E-01    0.336E-01
RMM:   3    -0.128269122926E+04   -0.22019E-02   -0.32556E-03  2346   0.138E-01    0.120E+00
RMM:   4    -0.128268885557E+04    0.23737E-02   -0.17849E-03  2726   0.851E-02    0.367E-01
RMM:   5    -0.128268915945E+04   -0.30388E-03   -0.61830E-04  2380   0.576E-02    0.114E-01
RMM:   6    -0.128268928947E+04   -0.13002E-03   -0.15829E-04  2536   0.235E-02    0.153E-01
RMM:   7    -0.128268927668E+04    0.12790E-04   -0.92756E-05  2216   0.192E-02    0.133E-01
RMM:   8    -0.128268934975E+04   -0.73075E-04   -0.12584E-04  2356   0.221E-02    0.146E-01
RMM:   9    -0.128268931434E+04    0.35409E-04   -0.81022E-05  2234   0.191E-02    0.908E-02
RMM:  10    -0.128268932161E+04   -0.72615E-05   -0.44374E-05  1982   0.138E-02    0.751E-02
RMM:  11    -0.128268931470E+04    0.69079E-05   -0.18931E-05  1704   0.905E-03    0.330E-02
RMM:  12    -0.128268931945E+04   -0.47489E-05   -0.64449E-06  1525   0.576E-03    0.170E-02
RMM:  13    -0.128268932187E+04   -0.24196E-05   -0.25634E-06  1469   0.364E-03    0.174E-02
RMM:  14    -0.128268932188E+04   -0.10987E-07   -0.10390E-06  1325   0.270E-03
 233 F= -.12920016E+04 E0= -.12919891E+04  d E =-.103586E-02  mag=    37.9006
       N       E                     dE             d eps       ncg     rms          rms(c)
DAV:   1    -0.128268652069E+04    0.28012E-02   -0.15677E+00  2160   0.262E+00    0.311E-01
RMM:   2    -0.128269004151E+04   -0.35208E-02   -0.34832E-02  2413   0.353E-01    0.526E-01
RMM:   3    -0.128269358552E+04   -0.35440E-02   -0.48875E-03  2368   0.166E-01    0.205E+00
RMM:   4    -0.128268869850E+04    0.48870E-02   -0.34598E-03  2644   0.126E-01    0.472E-01
RMM:   5    -0.128269001918E+04   -0.13207E-02   -0.12519E-03  2371   0.846E-02    0.129E-01
RMM:   6    -0.128269034235E+04   -0.32317E-03   -0.31306E-04  2548   0.351E-02    0.171E-01
RMM:   7    -0.128269032094E+04    0.21403E-04   -0.16881E-04  2409   0.266E-02    0.141E-01
RMM:   8    -0.128269044100E+04   -0.12005E-03   -0.16516E-04  2389   0.246E-02    0.221E-01
RMM:   9    -0.128269035550E+04    0.85494E-04   -0.13239E-04  2350   0.238E-02    0.127E-01
RMM:  10    -0.128269037635E+04   -0.20846E-04   -0.61963E-05  2040   0.169E-02    0.114E-01
RMM:  11    -0.128269036806E+04    0.82919E-05   -0.28295E-05  1843   0.116E-02    0.718E-02
RMM:  12    -0.128269037260E+04   -0.45373E-05   -0.98747E-06  1594   0.710E-03    0.466E-02
RMM:  13    -0.128269037642E+04   -0.38259E-05   -0.45341E-06  1525   0.476E-03    0.277E-02
RMM:  14    -0.128269038019E+04   -0.37729E-05   -0.22185E-06  1463   0.354E-03    0.114E-02
RMM:  15    -0.128269038267E+04   -0.24795E-05   -0.12710E-06  1343   0.279E-03    0.789E-03
RMM:  16    -0.128269038427E+04   -0.15930E-05   -0.62426E-07  1264   0.197E-03    0.767E-03
RMM:  17    -0.128269038479E+04   -0.52118E-06   -0.42795E-07  1248   0.165E-03
 234 F= -.12920024E+04 E0= -.12919900E+04  d E =-.856075E-03  mag=    37.9024
       N       E                     dE             d eps       ncg     rms          rms(c)
DAV:   1    -0.128268915739E+04    0.12269E-02   -0.63220E-01  2160   0.167E+00    0.197E-01
RMM:   2    -0.128269049828E+04   -0.13409E-02   -0.14059E-02  2421   0.224E-01    0.278E-01
RMM:   3    -0.128269211428E+04   -0.16160E-02   -0.19801E-03  2370   0.106E-01    0.129E+00
RMM:   4    -0.128268993365E+04    0.21806E-02   -0.13366E-03  2639   0.778E-02    0.287E-01
RMM:   5    -0.128269053746E+04   -0.60381E-03   -0.49327E-04  2335   0.530E-02    0.787E-02
RMM:   6    -0.128269067923E+04   -0.14178E-03   -0.11646E-04  2462   0.213E-02    0.985E-02
RMM:   7    -0.128269068533E+04   -0.60958E-05   -0.68817E-05  2225   0.170E-02    0.910E-02
RMM:   8    -0.128269072801E+04   -0.42680E-04   -0.63088E-05  2197   0.155E-02    0.127E-01
RMM:   9    -0.128269070168E+04    0.26334E-04   -0.47536E-05  2037   0.145E-02    0.773E-02
RMM:  10    -0.128269071250E+04   -0.10829E-04   -0.22840E-05  1813   0.102E-02    0.746E-02
RMM:  11    -0.128269070886E+04    0.36472E-05   -0.10588E-05  1591   0.754E-03    0.423E-02
RMM:  12    -0.128269071223E+04   -0.33759E-05   -0.39227E-06  1497   0.479E-03    0.275E-02
RMM:  13    -0.128269071472E+04   -0.24897E-05   -0.17951E-06  1421   0.306E-03    0.156E-02
RMM:  14    -0.128269071678E+04   -0.20603E-05   -0.92795E-07  1309   0.242E-03    0.772E-03
RMM:  15    -0.128269071808E+04   -0.13014E-05   -0.48065E-07  1247   0.179E-03    0.515E-03
RMM:  16    -0.128269071933E+04   -0.12461E-05   -0.29170E-07  1243   0.131E-03    0.525E-03
RMM:  17    -0.128269071982E+04   -0.48702E-06   -0.20670E-07  1185   0.112E-03
 235 F= -.12920026E+04 E0= -.12919902E+04  d E =-.105884E-02  mag=    37.9043
       N       E                     dE             d eps       ncg     rms          rms(c)
DAV:   1    -0.128269010058E+04    0.61875E-03   -0.62244E-01  2160   0.167E+00    0.214E-01
RMM:   2    -0.128269168634E+04   -0.15858E-02   -0.14472E-02  2458   0.231E-01    0.530E-01
RMM:   3    -0.128269236446E+04   -0.67812E-03   -0.20089E-03  2413   0.105E-01    0.103E+00
RMM:   4    -0.128269125158E+04    0.11129E-02   -0.12343E-03  2642   0.773E-02    0.268E-01
RMM:   5    -0.128269153320E+04   -0.28162E-03   -0.36001E-04  2329   0.447E-02    0.951E-02
RMM:   6    -0.128269167094E+04   -0.13774E-03   -0.12870E-04  2449   0.223E-02    0.165E-01
RMM:   7    -0.128269162225E+04    0.48693E-04   -0.68863E-05  2198   0.171E-02    0.975E-02
RMM:   8    -0.128269167052E+04   -0.48274E-04   -0.81481E-05  2234   0.179E-02    0.987E-02
RMM:   9    -0.128269166643E+04    0.40939E-05   -0.46298E-05  2178   0.146E-02    0.703E-02
RMM:  10    -0.128269167381E+04   -0.73833E-05   -0.24189E-05  1851   0.106E-02    0.735E-02
RMM:  11    -0.128269167030E+04    0.35100E-05   -0.10559E-05  1599   0.729E-03    0.438E-02
RMM:  12    -0.128269167407E+04   -0.37651E-05   -0.43398E-06  1487   0.499E-03    0.246E-02
RMM:  13    -0.128269167718E+04   -0.31173E-05   -0.19935E-06  1436   0.330E-03    0.136E-02
RMM:  14    -0.128269167952E+04   -0.23331E-05   -0.97313E-07  1320   0.245E-03    0.908E-03
RMM:  15    -0.128269168058E+04   -0.10673E-05   -0.55026E-07  1265   0.189E-03    0.739E-03
RMM:  16    -0.128269168174E+04   -0.11540E-05   -0.29646E-07  1246   0.131E-03    0.561E-03
RMM:  17    -0.128269168234E+04   -0.60628E-06   -0.21707E-07  1191   0.114E-03
 236 F= -.12920033E+04 E0= -.12919909E+04  d E =-.662964E-03  mag=    37.9050
       N       E                     dE             d eps       ncg     rms          rms(c)
DAV:   1    -0.128269153150E+04    0.15023E-03   -0.16946E-01  2184   0.873E-01    0.112E-01
RMM:   2    -0.128269194128E+04   -0.40978E-03   -0.39393E-03  2457   0.120E-01    0.279E-01
RMM:   3    -0.128269211180E+04   -0.17051E-03   -0.54546E-04  2408   0.547E-02    0.509E-01
RMM:   4    -0.128269182238E+04    0.28942E-03   -0.32246E-04  2589   0.396E-02    0.136E-01
RMM:   5    -0.128269190642E+04   -0.84040E-04   -0.89433E-05  2142   0.224E-02    0.491E-02
RMM:   6    -0.128269195073E+04   -0.44316E-04   -0.33341E-05  2112   0.116E-02    0.803E-02
RMM:   7    -0.128269194127E+04    0.94661E-05   -0.18337E-05  1805   0.914E-03    0.536E-02
RMM:   8    -0.128269195712E+04   -0.15858E-04   -0.22849E-05  1897   0.976E-03    0.537E-02
RMM:   9    -0.128269195628E+04    0.83914E-06   -0.13145E-05  1767   0.808E-03    0.330E-02
RMM:  10    -0.128269196045E+04   -0.41685E-05   -0.69983E-06  1556   0.601E-03    0.378E-02
RMM:  11    -0.128269195906E+04    0.13972E-05   -0.31427E-06  1469   0.439E-03    0.222E-02
RMM:  12    -0.128269196060E+04   -0.15471E-05   -0.11985E-06  1323   0.275E-03    0.123E-02
RMM:  13    -0.128269196167E+04   -0.10700E-05   -0.57700E-07  1251   0.192E-03    0.720E-03
RMM:  14    -0.128269196259E+04   -0.91650E-06   -0.30238E-07  1242   0.139E-03
 237 F= -.12920034E+04 E0= -.12919910E+04  d E =-.786850E-03  mag=    37.9053
       N       E                     dE             d eps       ncg     rms          rms(c)
DAV:   1    -0.128269141561E+04    0.54606E-03   -0.70143E-01  2160   0.178E+00    0.220E-01
RMM:   2    -0.128269322973E+04   -0.18141E-02   -0.15775E-02  2498   0.243E-01    0.604E-01
RMM:   3    -0.128269366876E+04   -0.43903E-03   -0.21677E-03  2459   0.108E-01    0.964E-01
RMM:   4    -0.128269281461E+04    0.85415E-03   -0.12282E-03  2631   0.766E-02    0.277E-01
RMM:   5    -0.128269303227E+04   -0.21766E-03   -0.34374E-04  2355   0.422E-02    0.118E-01
RMM:   6    -0.128269315450E+04   -0.12222E-03   -0.14443E-04  2416   0.236E-02    0.165E-01
RMM:   7    -0.128269311203E+04    0.42467E-04   -0.79172E-05  2375   0.185E-02    0.835E-02
RMM:   8    -0.128269316645E+04   -0.54417E-04   -0.90326E-05  2265   0.188E-02    0.997E-02
RMM:   9    -0.128269315706E+04    0.93881E-05   -0.48431E-05  2187   0.148E-02    0.596E-02
RMM:  10    -0.128269316676E+04   -0.97030E-05   -0.21341E-05  1802   0.985E-03    0.650E-02
RMM:  11    -0.128269316334E+04    0.34235E-05   -0.90536E-06  1570   0.667E-03    0.394E-02
RMM:  12    -0.128269316630E+04   -0.29574E-05   -0.40958E-06  1505   0.478E-03    0.214E-02
RMM:  13    -0.128269316934E+04   -0.30390E-05   -0.17220E-06  1428   0.319E-03    0.103E-02
RMM:  14    -0.128269317178E+04   -0.24454E-05   -0.89829E-07  1324   0.229E-03    0.114E-02
RMM:  15    -0.128269317262E+04   -0.84434E-06   -0.50707E-07  1248   0.184E-03
 238 F= -.12920041E+04 E0= -.12919917E+04  d E =-.707392E-03  mag=    37.9050
       N       E                     dE             d eps       ncg     rms          rms(c)
DAV:   1    -0.128269271462E+04    0.45716E-03   -0.43264E-01  2160   0.140E+00    0.173E-01
RMM:   2    -0.128269382977E+04   -0.11151E-02   -0.97366E-03  2496   0.191E-01    0.491E-01
RMM:   3    -0.128269403890E+04   -0.20913E-03   -0.13386E-03  2462   0.846E-02    0.723E-01
RMM:   4    -0.128269359812E+04    0.44078E-03   -0.75068E-04  2619   0.599E-02    0.230E-01
RMM:   5    -0.128269369843E+04   -0.10032E-03   -0.20742E-04  2297   0.328E-02    0.900E-02
RMM:   6    -0.128269378039E+04   -0.81960E-04   -0.87873E-05  2307   0.185E-02    0.129E-01
RMM:   7    -0.128269375749E+04    0.22908E-04   -0.49727E-05  2202   0.148E-02    0.636E-02
RMM:   8    -0.128269379578E+04   -0.38290E-04   -0.57826E-05  2106   0.150E-02    0.821E-02
RMM:   9    -0.128269379151E+04    0.42654E-05   -0.32917E-05  2035   0.122E-02    0.555E-02
RMM:  10    -0.128269379361E+04   -0.21050E-05   -0.15107E-05  1679   0.847E-03    0.466E-02
RMM:  11    -0.128269379441E+04   -0.79718E-06   -0.59227E-06  1547   0.574E-03
 239 F= -.12920044E+04 E0= -.12919919E+04  d E =-.934536E-03  mag=    37.9047
       N       E                     dE             d eps       ncg     rms          rms(c)
DAV:   1    -0.128269289345E+04    0.90017E-03   -0.76962E-01  2160   0.187E+00    0.244E-01
RMM:   2    -0.128269568229E+04   -0.27888E-02   -0.17788E-02  2482   0.262E-01    0.974E-01
RMM:   3    -0.128269454386E+04    0.11384E-02   -0.26456E-03  2455   0.120E-01    0.632E-01
RMM:   4    -0.128269492495E+04   -0.38109E-03   -0.13532E-03  2677   0.809E-02    0.324E-01
RMM:   5    -0.128269474370E+04    0.18125E-03   -0.36190E-04  2373   0.428E-02    0.967E-02
RMM:   6    -0.128269484174E+04   -0.98043E-04   -0.14455E-04  2502   0.223E-02    0.139E-01
RMM:   7    -0.128269482583E+04    0.15909E-04   -0.79868E-05  2387   0.179E-02    0.119E-01
RMM:   8    -0.128269484975E+04   -0.23924E-04   -0.81132E-05  2170   0.179E-02    0.112E-01
RMM:   9    -0.128269487165E+04   -0.21891E-04   -0.59136E-05  2221   0.163E-02    0.914E-02
RMM:  10    -0.128269486003E+04    0.11618E-04   -0.30127E-05  1853   0.119E-02    0.403E-02
RMM:  11    -0.128269487222E+04   -0.12193E-04   -0.10959E-05  1621   0.715E-03    0.367E-02
RMM:  12    -0.128269487049E+04    0.17265E-05   -0.47103E-06  1510   0.527E-03    0.160E-02
RMM:  13    -0.128269487428E+04   -0.37816E-05   -0.20043E-06  1447   0.303E-03    0.164E-02
RMM:  14    -0.128269487616E+04   -0.18819E-05   -0.94833E-07  1325   0.252E-03    0.710E-03
RMM:  15    -0.128269487845E+04   -0.22915E-05   -0.39840E-07  1260   0.146E-03    0.584E-03
RMM:  16    -0.128269487988E+04   -0.14309E-05   -0.30584E-07  1241   0.133E-03    0.547E-03
RMM:  17    -0.128269488116E+04   -0.12764E-05   -0.20049E-07  1191   0.104E-03    0.283E-03
RMM:  18    -0.128269488267E+04   -0.15129E-05   -0.13769E-07  1116   0.793E-04    0.237E-03
RMM:  19    -0.128269488349E+04   -0.81481E-06   -0.10646E-07  1022   0.726E-04
 240 F= -.12920051E+04 E0= -.12919926E+04  d E =-.753639E-03  mag=    37.9044
       N       E                     dE             d eps       ncg     rms          rms(c)
