       N       E                     dE             d eps       ncg     rms          rms(c)
DAV:   1     0.909349422827E+04    0.90935E+04   -0.36277E+05  2160   0.136E+03
DAV:   2     0.820759741694E+03   -0.82727E+04   -0.74602E+04  2520   0.425E+02
DAV:   3    -0.132339120047E+04   -0.21442E+04   -0.20334E+04  3636   0.213E+02
DAV:   4    -0.148886304332E+04   -0.16547E+03   -0.15428E+03  3384   0.668E+01
DAV:   5    -0.149716656784E+04   -0.83035E+01   -0.76626E+01  3576   0.145E+01    0.164E+02
RMM:   6    -0.203127462568E+04   -0.53411E+03   -0.36506E+03  2929   0.134E+02    0.534E+02
RMM:   7    -0.177972767840E+04    0.25155E+03   -0.27028E+02  2179   0.461E+01    0.326E+02
RMM:   8    -0.129260595338E+04    0.48712E+03   -0.57625E+02  2413   0.454E+01    0.948E+01
RMM:   9    -0.153662606706E+04   -0.24402E+03   -0.11867E+02  2342   0.217E+01    0.188E+02
RMM:  10    -0.142685490193E+04    0.10977E+03   -0.98788E+01  2283   0.208E+01    0.149E+02
RMM:  11    -0.131800500146E+04    0.10885E+03   -0.85031E+01  2239   0.204E+01    0.126E+02
RMM:  12    -0.138772000819E+04   -0.69715E+02   -0.81654E+01  2243   0.187E+01    0.129E+02
RMM:  13    -0.129971292782E+04    0.88007E+02   -0.61768E+01  2379   0.160E+01    0.101E+02
RMM:  14    -0.128952405933E+04    0.10189E+02   -0.46540E+01  2226   0.155E+01    0.994E+01
RMM:  15    -0.126046341797E+04    0.29061E+02   -0.21848E+01  2365   0.923E+00    0.737E+01
RMM:  16    -0.124786124790E+04    0.12602E+02   -0.14181E+01  2264   0.809E+00    0.630E+01
RMM:  17    -0.125106531032E+04   -0.32041E+01   -0.86759E+00  2301   0.593E+00    0.679E+01
RMM:  18    -0.124537732972E+04    0.56880E+01   -0.60681E+00  2356   0.506E+00    0.576E+01
RMM:  19    -0.124300766846E+04    0.23697E+01   -0.37965E+00  2368   0.386E+00    0.455E+01
RMM:  20    -0.124459276016E+04   -0.15851E+01   -0.21528E+00  2278   0.288E+00    0.464E+01
RMM:  21    -0.124456727893E+04    0.25481E-01   -0.25978E+00  2296   0.329E+00    0.394E+01
RMM:  22    -0.124473568164E+04   -0.16840E+00   -0.12006E+00  2241   0.227E+00    0.351E+01
RMM:  23    -0.124487802284E+04   -0.14234E+00   -0.88736E-01  2356   0.180E+00    0.352E+01
RMM:  24    -0.124492085303E+04   -0.42830E-01   -0.74149E-01  2329   0.173E+00    0.291E+01
RMM:  25    -0.124524091271E+04   -0.32006E+00   -0.70691E-01  2279   0.168E+00    0.343E+01
RMM:  26    -0.124564455561E+04   -0.40364E+00   -0.47768E-01  2296   0.139E+00    0.249E+01
RMM:  27    -0.124562763558E+04    0.16920E-01   -0.20521E-01  2315   0.924E-01    0.239E+01
RMM:  28    -0.124588146254E+04   -0.25383E+00   -0.12869E-01  2325   0.681E-01    0.238E+01
RMM:  29    -0.124592278144E+04   -0.41319E-01   -0.27579E-02  2397   0.311E-01    0.238E+01
RMM:  30    -0.124850390753E+04   -0.25811E+01   -0.49441E-01  2267   0.125E+00    0.324E+01
RMM:  31    -0.124920285041E+04   -0.69894E+00   -0.41408E-01  2279   0.140E+00    0.304E+01
RMM:  32    -0.125010193588E+04   -0.89909E+00   -0.42613E-01  2309   0.127E+00    0.312E+01
RMM:  33    -0.125204867634E+04   -0.19467E+01   -0.78676E-01  2269   0.162E+00    0.330E+01
RMM:  34    -0.125209775125E+04   -0.49075E-01   -0.58996E-01  2287   0.148E+00    0.272E+01
RMM:  35    -0.125485697390E+04   -0.27592E+01   -0.14597E+00  2246   0.216E+00    0.327E+01
RMM:  36    -0.125556688874E+04   -0.70991E+00   -0.13503E+00  2327   0.229E+00    0.232E+01
RMM:  37    -0.125688503200E+04   -0.13181E+01   -0.55240E-01  2327   0.143E+00    0.208E+01
RMM:  38    -0.125745219827E+04   -0.56717E+00   -0.19509E-01  2391   0.900E-01    0.215E+01
RMM:  39    -0.125746000430E+04   -0.78060E-02   -0.78373E-02  2545   0.485E-01    0.198E+01
RMM:  40    -0.125819059878E+04   -0.73059E+00   -0.10822E-01  2303   0.576E-01    0.188E+01
RMM:  41    -0.125835057430E+04   -0.15998E+00   -0.57984E-02  2278   0.499E-01    0.186E+01
RMM:  42    -0.125857601726E+04   -0.22544E+00   -0.56665E-02  2329   0.430E-01    0.187E+01
RMM:  43    -0.125935400643E+04   -0.77799E+00   -0.10846E-01  2281   0.609E-01    0.199E+01
RMM:  44    -0.125925019618E+04    0.10381E+00   -0.35618E-02  2312   0.404E-01    0.200E+01
RMM:  45    -0.125940901364E+04   -0.15882E+00   -0.19724E-02  2377   0.268E-01    0.202E+01
RMM:  46    -0.125958435107E+04   -0.17534E+00   -0.23024E-02  2286   0.283E-01    0.207E+01
RMM:  47    -0.125936016098E+04    0.22419E+00   -0.14506E-01  2208   0.725E-01    0.166E+01
RMM:  48    -0.126071185908E+04   -0.13517E+01   -0.25816E-01  2252   0.942E-01    0.155E+01
RMM:  49    -0.126164945242E+04   -0.93759E+00   -0.20326E-01  2375   0.799E-01    0.152E+01
RMM:  50    -0.126199654288E+04   -0.34709E+00   -0.75414E-02  2471   0.483E-01    0.152E+01
RMM:  51    -0.126356271744E+04   -0.15662E+01   -0.32108E-01  2280   0.987E-01    0.157E+01
RMM:  52    -0.126432369850E+04   -0.76098E+00   -0.38374E-01  2254   0.114E+00    0.150E+01
RMM:  53    -0.126538334105E+04   -0.10596E+01   -0.22957E-01  2462   0.868E-01    0.214E+01
RMM:  54    -0.126556789981E+04   -0.18456E+00   -0.86901E-02  2351   0.635E-01    0.214E+01
RMM:  55    -0.126574918728E+04   -0.18129E+00   -0.38040E-02  2468   0.330E-01    0.209E+01
RMM:  56    -0.126562452524E+04    0.12466E+00   -0.65563E-02  2239   0.485E-01    0.200E+01
RMM:  57    -0.126542044260E+04    0.20408E+00   -0.24125E-02  2250   0.327E-01    0.197E+01
RMM:  58    -0.126539508156E+04    0.25361E-01   -0.82218E-03  2502   0.163E-01    0.202E+01
RMM:  59    -0.126553731933E+04   -0.14224E+00   -0.10834E-02  2240   0.220E-01    0.201E+01
RMM:  60    -0.126555432473E+04   -0.17005E-01   -0.46929E-03  2439   0.128E-01    0.201E+01
RMM:  61    -0.126558249949E+04   -0.28175E-01   -0.10769E-01  2190   0.634E-01    0.205E+01
RMM:  62    -0.126620508056E+04   -0.62258E+00   -0.41618E-02  2217   0.443E-01    0.206E+01
RMM:  63    -0.126619465917E+04    0.10421E-01   -0.16287E-02  2427   0.234E-01    0.191E+01
RMM:  64    -0.126616794196E+04    0.26717E-01   -0.74243E-03  2272   0.170E-01    0.191E+01
RMM:  65    -0.126620494317E+04   -0.37001E-01   -0.73881E-03  2265   0.177E-01    0.193E+01
RMM:  66    -0.126604886307E+04    0.15608E+00   -0.70574E-02  2230   0.527E-01    0.188E+01
RMM:  67    -0.126639735007E+04   -0.34849E+00   -0.55102E-02  2253   0.502E-01    0.195E+01
RMM:  68    -0.126690746824E+04   -0.51012E+00   -0.47695E-02  2315   0.435E-01    0.197E+01
RMM:  69    -0.126728012174E+04   -0.37265E+00   -0.69197E-02  2250   0.518E-01    0.174E+01
RMM:  70    -0.126803566017E+04   -0.75554E+00   -0.12139E-01  2289   0.629E-01    0.150E+01
RMM:  71    -0.127156649226E+04   -0.35308E+01   -0.11211E+00  2215   0.197E+00    0.314E+01
RMM:  72    -0.126975435567E+04    0.18121E+01   -0.50023E-01  2296   0.149E+00    0.175E+01
RMM:  73    -0.127005309911E+04   -0.29874E+00   -0.27024E-01  2293   0.105E+00    0.191E+01
RMM:  74    -0.127013381645E+04   -0.80717E-01   -0.13231E-01  2335   0.711E-01    0.165E+01
RMM:  75    -0.127090662399E+04   -0.77281E+00   -0.18262E-01  2271   0.801E-01    0.206E+01
RMM:  76    -0.127132892691E+04   -0.42230E+00   -0.17390E-01  2289   0.817E-01    0.200E+01
RMM:  77    -0.127151875748E+04   -0.18983E+00   -0.12325E-01  2420   0.663E-01    0.167E+01
RMM:  78    -0.127253403759E+04   -0.10153E+01   -0.13763E-01  2196   0.670E-01    0.154E+01
RMM:  79    -0.127302039369E+04   -0.48636E+00   -0.81771E-02  2510   0.461E-01    0.990E+00
RMM:  80    -0.127348790395E+04   -0.46751E+00   -0.50489E-02  2399   0.379E-01    0.788E+00
RMM:  81    -0.127391568596E+04   -0.42778E+00   -0.93178E-02  2354   0.565E-01    0.944E+00
RMM:  82    -0.127398334938E+04   -0.67663E-01   -0.34258E-02  2321   0.369E-01    0.744E+00
RMM:  83    -0.127448655266E+04   -0.50320E+00   -0.39544E-02  2208   0.349E-01    0.642E+00
RMM:  84    -0.127509959387E+04   -0.61304E+00   -0.51691E-02  2289   0.365E-01    0.521E+00
RMM:  85    -0.127589762550E+04   -0.79803E+00   -0.74566E-02  2333   0.393E-01    0.400E+00
RMM:  86    -0.127692117062E+04   -0.10235E+01   -0.13419E-01  2292   0.582E-01    0.531E+00
RMM:  87    -0.127694431100E+04   -0.23140E-01   -0.29147E-02  2425   0.315E-01    0.398E+00
RMM:  88    -0.127728216059E+04   -0.33785E+00   -0.30665E-02  2277   0.288E-01    0.483E+00
RMM:  89    -0.127764999621E+04   -0.36784E+00   -0.28420E-02  2344   0.276E-01    0.370E+00
RMM:  90    -0.127823411184E+04   -0.58412E+00   -0.52040E-02  2251   0.312E-01    0.287E+00
RMM:  91    -0.127855135126E+04   -0.31724E+00   -0.29877E-02  2544   0.262E-01    0.258E+00
RMM:  92    -0.127867108363E+04   -0.11973E+00   -0.12248E-02  2724   0.157E-01    0.286E+00
RMM:  93    -0.127866160648E+04    0.94771E-02   -0.20376E-03  2632   0.738E-02    0.292E+00
RMM:  94    -0.127867120353E+04   -0.95971E-02   -0.69696E-04  2759   0.330E-02    0.293E+00
RMM:  95    -0.127873965051E+04   -0.68447E-01   -0.38728E-03  2266   0.113E-01    0.294E+00
RMM:  96    -0.127893404865E+04   -0.19440E+00   -0.11007E-02  2328   0.184E-01    0.372E+00
RMM:  97    -0.127907215393E+04   -0.13811E+00   -0.74119E-03  2454   0.146E-01    0.344E+00
RMM:  98    -0.127936265373E+04   -0.29050E+00   -0.14830E-02  2275   0.160E-01    0.286E+00
RMM:  99    -0.127956832105E+04   -0.20567E+00   -0.11997E-02  2492   0.165E-01    0.240E+00
RMM: 100    -0.127976119972E+04   -0.19288E+00   -0.10793E-02  2555   0.128E-01    0.246E+00
RMM: 101    -0.127975999605E+04    0.12037E-02   -0.65148E-03  2351   0.154E-01    0.237E+00
RMM: 102    -0.127993137834E+04   -0.17138E+00   -0.67596E-03  2336   0.115E-01    0.209E+00
RMM: 103    -0.128008310154E+04   -0.15172E+00   -0.79078E-03  2651   0.107E-01    0.200E+00
RMM: 104    -0.128018974286E+04   -0.10664E+00   -0.60872E-03  2537   0.964E-02    0.187E+00
RMM: 105    -0.128021802505E+04   -0.28282E-01   -0.14169E-03  2675   0.477E-02    0.180E+00
RMM: 106    -0.128028506136E+04   -0.67036E-01   -0.72257E-03  2340   0.140E-01    0.188E+00
RMM: 107    -0.128029746759E+04   -0.12406E-01   -0.26402E-03  2380   0.103E-01    0.173E+00
RMM: 108    -0.128031463422E+04   -0.17167E-01   -0.19494E-03  2518   0.707E-02    0.174E+00
RMM: 109    -0.128034090824E+04   -0.26274E-01   -0.22087E-03  2558   0.674E-02    0.150E+00
RMM: 110    -0.128036128211E+04   -0.20374E-01   -0.33045E-03  2585   0.693E-02    0.118E+00
RMM: 111    -0.128036324497E+04   -0.19629E-02   -0.75398E-03  2520   0.140E-01    0.887E-01
RMM: 112    -0.128036521590E+04   -0.19709E-02   -0.17888E-03  2435   0.791E-02    0.841E-01
RMM: 113    -0.128036880905E+04   -0.35932E-02   -0.67487E-04  2526   0.446E-02    0.691E-01
RMM: 114    -0.128036917695E+04   -0.36790E-03   -0.68448E-04  2456   0.467E-02    0.621E-01
RMM: 115    -0.128037070348E+04   -0.15265E-02   -0.57828E-04  2461   0.395E-02    0.510E-01
RMM: 116    -0.128036964229E+04    0.10612E-02   -0.14479E-03  2441   0.659E-02    0.666E-01
RMM: 117    -0.128036980469E+04   -0.16240E-03   -0.42393E-04  2332   0.420E-02    0.570E-01
RMM: 118    -0.128036998247E+04   -0.17778E-03   -0.27008E-04  2570   0.232E-02    0.419E-01
RMM: 119    -0.128037081934E+04   -0.83687E-03   -0.14919E-04  2400   0.218E-02    0.410E-01
RMM: 120    -0.128037147434E+04   -0.65501E-03   -0.14400E-04  2504   0.202E-02
   1 F= -.12892861E+04 E0= -.12892717E+04  d E =-.128929E+04  mag=    16.2188
       N       E                     dE             d eps       ncg     rms          rms(c)
DAV:   1    -0.127416837496E+04    0.62024E+01   -0.13625E+03  2220   0.814E+01    0.153E+01
RMM:   2    -0.127834386058E+04   -0.41755E+01   -0.50462E+01  2397   0.152E+01    0.139E+01
RMM:   3    -0.128314486884E+04   -0.48010E+01   -0.10145E+01  2597   0.682E+00    0.432E+01
RMM:   4    -0.127912700589E+04    0.40179E+01   -0.30894E+00  2625   0.381E+00    0.224E+01
RMM:   5    -0.127849624674E+04    0.63076E+00   -0.92075E-01  2606   0.185E+00    0.124E+01
RMM:   6    -0.127860947101E+04   -0.11322E+00   -0.35003E-01  2496   0.120E+00    0.159E+01
RMM:   7    -0.127854727591E+04    0.62195E-01   -0.39060E-01  2468   0.121E+00    0.992E+00
RMM:   8    -0.127866401901E+04   -0.11674E+00   -0.37950E-01  2440   0.123E+00    0.108E+01
RMM:   9    -0.127857607565E+04    0.87943E-01   -0.30880E-01  2398   0.110E+00    0.667E+00
RMM:  10    -0.127855454628E+04    0.21529E-01   -0.23728E-01  2474   0.942E-01    0.751E+00
RMM:  11    -0.127860450949E+04   -0.49963E-01   -0.28362E-01  2508   0.105E+00    0.872E+00
RMM:  12    -0.127856972009E+04    0.34789E-01   -0.24514E-01  2479   0.977E-01    0.104E+01
RMM:  13    -0.127855276793E+04    0.16952E-01   -0.15348E-01  2501   0.803E-01    0.110E+01
RMM:  14    -0.127852680563E+04    0.25962E-01   -0.82763E-02  2466   0.582E-01    0.109E+01
RMM:  15    -0.127846079431E+04    0.66011E-01   -0.35539E-02  2410   0.379E-01    0.876E+00
RMM:  16    -0.127843802161E+04    0.22773E-01   -0.32719E-02  2338   0.376E-01    0.322E+00
RMM:  17    -0.127847090148E+04   -0.32880E-01   -0.34849E-02  2313   0.438E-01    0.231E+00
RMM:  18    -0.127847510605E+04   -0.42046E-02   -0.10848E-02  2431   0.223E-01    0.202E+00
RMM:  19    -0.127847767104E+04   -0.25650E-02   -0.44511E-03  2449   0.128E-01    0.172E+00
RMM:  20    -0.127848139968E+04   -0.37286E-02   -0.66211E-03  2405   0.162E-01    0.170E+00
RMM:  21    -0.127848445587E+04   -0.30562E-02   -0.68148E-03  2462   0.168E-01    0.219E+00
RMM:  22    -0.127848587149E+04   -0.14156E-02   -0.53052E-03  2350   0.157E-01    0.262E+00
RMM:  23    -0.127848243837E+04    0.34331E-02   -0.31883E-03  2368   0.119E-01    0.198E+00
RMM:  24    -0.127848174440E+04    0.69397E-03   -0.29162E-03  2391   0.111E-01    0.133E+00
RMM:  25    -0.127848310157E+04   -0.13572E-02   -0.26239E-03  2466   0.103E-01    0.906E-01
RMM:  26    -0.127848407619E+04   -0.97461E-03   -0.15171E-03  2552   0.800E-02    0.495E-01
RMM:  27    -0.127848552661E+04   -0.14504E-02   -0.79523E-04  2622   0.508E-02    0.412E-01
RMM:  28    -0.127848665253E+04   -0.11259E-02   -0.46351E-04  2409   0.400E-02    0.347E-01
RMM:  29    -0.127848797050E+04   -0.13180E-02   -0.42988E-04  2331   0.396E-02    0.329E-01
RMM:  30    -0.127848901830E+04   -0.10478E-02   -0.32538E-04  2314   0.374E-02    0.179E-01
RMM:  31    -0.127849052698E+04   -0.15087E-02   -0.23526E-04  2430   0.284E-02    0.151E-01
RMM:  32    -0.127849161725E+04   -0.10903E-02   -0.20072E-04  2407   0.267E-02    0.217E-01
RMM:  33    -0.127849226432E+04   -0.64707E-03   -0.13468E-04  2333   0.225E-02    0.994E-02
RMM:  34    -0.127849314629E+04   -0.88198E-03   -0.67453E-05  2240   0.132E-02    0.574E-02
RMM:  35    -0.127849375203E+04   -0.60573E-03   -0.39304E-05  2225   0.935E-03    0.477E-02
RMM:  36    -0.127849415602E+04   -0.40399E-03   -0.19759E-05  2021   0.657E-03    0.383E-02
RMM:  37    -0.127849459023E+04   -0.43421E-03   -0.16688E-05  1978   0.604E-03    0.325E-02
RMM:  38    -0.127849511635E+04   -0.52612E-03   -0.17210E-05  2032   0.466E-03    0.288E-02
RMM:  39    -0.127849562128E+04   -0.50493E-03   -0.17084E-05  2063   0.425E-03    0.200E-02
RMM:  40    -0.127849592389E+04   -0.30261E-03   -0.89927E-06  1831   0.323E-03    0.160E-02
RMM:  41    -0.127849630281E+04   -0.37892E-03   -0.13792E-05  1938   0.356E-03    0.138E-02
RMM:  42    -0.127849665366E+04   -0.35085E-03   -0.16260E-05  1966   0.370E-03    0.102E-02
RMM:  43    -0.127849691976E+04   -0.26610E-03   -0.16249E-05  1993   0.363E-03    0.595E-03
RMM:  44    -0.127849701302E+04   -0.93256E-04   -0.52456E-06  1683   0.259E-03    0.479E-03
RMM:  45    -0.127849708968E+04   -0.76659E-04   -0.46268E-06  1601   0.228E-03    0.370E-03
RMM:  46    -0.127849715716E+04   -0.67480E-04   -0.53546E-06  1649   0.221E-03    0.320E-03
RMM:  47    -0.127849717965E+04   -0.22493E-04   -0.22481E-06  1416   0.183E-03    0.213E-03
RMM:  48    -0.127849719040E+04   -0.10754E-04   -0.13528E-06  1275   0.145E-03    0.138E-03
RMM:  49    -0.127849719585E+04   -0.54481E-05   -0.78282E-07  1188   0.117E-03    0.155E-03
RMM:  50    -0.127849720003E+04   -0.41753E-05   -0.56405E-07  1151   0.960E-04    0.707E-04
RMM:  51    -0.127849720283E+04   -0.28016E-05   -0.42625E-07  1101   0.856E-04    0.430E-04
RMM:  52    -0.127849720414E+04   -0.13131E-05   -0.27884E-07  1012   0.703E-04    0.348E-04
RMM:  53    -0.127849720514E+04   -0.10004E-05   -0.19305E-07   962   0.593E-04    0.280E-04
RMM:  54    -0.127849720594E+04   -0.80004E-06   -0.13195E-07   879   0.510E-04
   2 F= -.12874662E+04 E0= -.12874589E+04  d E =0.181988E+01  mag=    16.1120
       N       E                     dE             d eps       ncg     rms          rms(c)
DAV:   1    -0.127980975290E+04   -0.13125E+01   -0.58145E+02  2220   0.539E+01    0.105E+01
RMM:   2    -0.128159370951E+04   -0.17840E+01   -0.16658E+01  2507   0.879E+00    0.112E+01
RMM:   3    -0.128424658895E+04   -0.26529E+01   -0.36667E+00  2601   0.403E+00    0.358E+01
RMM:   4    -0.128156445741E+04    0.26821E+01   -0.17071E+00  2591   0.272E+00    0.186E+01
RMM:   5    -0.128128434737E+04    0.28011E+00   -0.53640E-01  2497   0.141E+00    0.689E+00
RMM:   6    -0.128173157721E+04   -0.44723E+00   -0.43702E-01  2387   0.130E+00    0.228E+01
RMM:   7    -0.128119341207E+04    0.53817E+00   -0.19895E-01  2511   0.830E-01    0.509E+00
RMM:   8    -0.128136119064E+04   -0.16778E+00   -0.25963E-01  2332   0.103E+00    0.631E+00
RMM:   9    -0.128129903637E+04    0.62154E-01   -0.15585E-01  2521   0.750E-01    0.547E+00
RMM:  10    -0.128122430538E+04    0.74731E-01   -0.14144E-01  2492   0.712E-01    0.328E+00
RMM:  11    -0.128120462160E+04    0.19684E-01   -0.75597E-02  2519   0.548E-01    0.337E+00
RMM:  12    -0.128121200228E+04   -0.73807E-02   -0.25264E-02  2480   0.320E-01    0.425E+00
RMM:  13    -0.128119873773E+04    0.13265E-01   -0.64788E-03  2536   0.150E-01    0.320E+00
RMM:  14    -0.128122331796E+04   -0.24580E-01   -0.18662E-02  2341   0.253E-01    0.427E+00
RMM:  15    -0.128120052802E+04    0.22790E-01   -0.17617E-02  2392   0.266E-01    0.202E+00
RMM:  16    -0.128121197886E+04   -0.11451E-01   -0.15371E-02  2308   0.268E-01    0.156E+00
RMM:  17    -0.128121358538E+04   -0.16065E-02   -0.92690E-03  2345   0.201E-01    0.164E+00
RMM:  18    -0.128121130775E+04    0.22776E-02   -0.53843E-03  2389   0.153E-01    0.118E+00
RMM:  19    -0.128121374250E+04   -0.24347E-02   -0.37281E-03  2381   0.126E-01    0.947E-01
RMM:  20    -0.128121653386E+04   -0.27914E-02   -0.18863E-03  2342   0.931E-02    0.827E-01
RMM:  21    -0.128121792914E+04   -0.13953E-02   -0.10717E-03  2376   0.681E-02    0.739E-01
RMM:  22    -0.128121852919E+04   -0.60005E-03   -0.70780E-04  2380   0.533E-02    0.672E-01
RMM:  23    -0.128121973023E+04   -0.12010E-02   -0.34097E-04  2339   0.378E-02    0.633E-01
RMM:  24    -0.128122143832E+04   -0.17081E-02   -0.23297E-04  2294   0.291E-02    0.702E-01
RMM:  25    -0.128122209005E+04   -0.65173E-03   -0.22722E-04  2368   0.289E-02    0.654E-01
RMM:  26    -0.128122296040E+04   -0.87035E-03   -0.20072E-04  2415   0.263E-02    0.487E-01
RMM:  27    -0.128122390096E+04   -0.94056E-03   -0.10823E-04  2386   0.178E-02    0.444E-01
RMM:  28    -0.128122430780E+04   -0.40684E-03   -0.73724E-05  2210   0.151E-02    0.434E-01
RMM:  29    -0.128122480791E+04   -0.50011E-03   -0.66085E-05  2226   0.136E-02    0.396E-01
RMM:  30    -0.128122521474E+04   -0.40683E-03   -0.52412E-05  2309   0.977E-03    0.367E-01
RMM:  31    -0.128122543202E+04   -0.21728E-03   -0.45922E-05  2286   0.957E-03    0.344E-01
RMM:  32    -0.128122548308E+04   -0.51063E-04   -0.47562E-05  2202   0.106E-02    0.307E-01
RMM:  33    -0.128122543194E+04    0.51147E-04   -0.35560E-05  2149   0.939E-03    0.275E-01
RMM:  34    -0.128122537886E+04    0.53073E-04   -0.19882E-05  2079   0.596E-03    0.256E-01
RMM:  35    -0.128122528157E+04    0.97292E-04   -0.22870E-05  2116   0.717E-03    0.232E-01
RMM:  36    -0.128122518082E+04    0.10075E-03   -0.19650E-05  1956   0.735E-03    0.216E-01
RMM:  37    -0.128122496297E+04    0.21785E-03   -0.33921E-05  2237   0.840E-03    0.175E-01
RMM:  38    -0.128122482495E+04    0.13801E-03   -0.29286E-05  2219   0.754E-03    0.139E-01
RMM:  39    -0.128122483577E+04   -0.10821E-04   -0.22763E-05  2144   0.661E-03    0.109E-01
RMM:  40    -0.128122500672E+04   -0.17094E-03   -0.26414E-05  2174   0.728E-03    0.740E-02
RMM:  41    -0.128122531676E+04   -0.31004E-03   -0.21682E-05  2123   0.631E-03    0.486E-02
RMM:  42    -0.128122559176E+04   -0.27500E-03   -0.15945E-05  2021   0.551E-03    0.289E-02
RMM:  43    -0.128122595882E+04   -0.36706E-03   -0.11792E-05  1884   0.435E-03    0.169E-02
RMM:  44    -0.128122645429E+04   -0.49547E-03   -0.16347E-05  1997   0.447E-03    0.976E-03
RMM:  45    -0.128122684100E+04   -0.38670E-03   -0.15492E-05  1971   0.400E-03    0.106E-02
RMM:  46    -0.128122698768E+04   -0.14668E-03   -0.69270E-06  1733   0.321E-03    0.888E-03
RMM:  47    -0.128122699652E+04   -0.88378E-05   -0.15355E-06  1328   0.238E-03    0.853E-03
RMM:  48    -0.128122704140E+04   -0.44885E-04   -0.12327E-06  1295   0.166E-03    0.739E-03
RMM:  49    -0.128122703026E+04    0.11142E-04   -0.45924E-07  1194   0.145E-03    0.893E-03
RMM:  50    -0.128122715294E+04   -0.12268E-03   -0.58086E-06  1648   0.246E-03    0.425E-03
RMM:  51    -0.128122718193E+04   -0.28993E-04   -0.21464E-06  1378   0.237E-03    0.384E-03
RMM:  52    -0.128122719945E+04   -0.17523E-04   -0.20309E-06  1398   0.148E-03    0.412E-03
RMM:  53    -0.128122720489E+04   -0.54388E-05   -0.87263E-07  1211   0.159E-03    0.418E-03
RMM:  54    -0.128122720784E+04   -0.29526E-05   -0.68964E-07  1206   0.111E-03    0.348E-03
RMM:  55    -0.128122720966E+04   -0.18149E-05   -0.45983E-07  1165   0.114E-03    0.324E-03
RMM:  56    -0.128122721107E+04   -0.14133E-05   -0.41053E-07  1168   0.915E-04    0.276E-03
RMM:  57    -0.128122721197E+04   -0.89455E-06   -0.31776E-07  1152   0.947E-04
   3 F= -.12901609E+04 E0= -.12901491E+04  d E =-.874820E+00  mag=    16.1654
       N       E                     dE             d eps       ncg     rms          rms(c)
DAV:   1    -0.127954884301E+04    0.16784E+01   -0.57573E+02  2160   0.509E+01    0.887E+00
RMM:   2    -0.128143370473E+04   -0.18849E+01   -0.18502E+01  2584   0.930E+00    0.115E+01
RMM:   3    -0.128318704678E+04   -0.17533E+01   -0.41658E+00  2697   0.406E+00    0.288E+01
RMM:   4    -0.128212366985E+04    0.10634E+01   -0.12651E+00  2502   0.242E+00    0.218E+01
RMM:   5    -0.128132512613E+04    0.79854E+00   -0.52212E-01  2556   0.147E+00    0.528E+00
RMM:   6    -0.128158975060E+04   -0.26462E+00   -0.37032E-01  2430   0.124E+00    0.723E+00
RMM:   7    -0.128154950562E+04    0.40245E-01   -0.17572E-01  2560   0.849E-01    0.398E+00
RMM:   8    -0.128156062933E+04   -0.11124E-01   -0.13181E-01  2516   0.719E-01    0.317E+00
RMM:   9    -0.128155069897E+04    0.99304E-02   -0.12149E-01  2548   0.674E-01    0.358E+00
RMM:  10    -0.128154660662E+04    0.40923E-02   -0.75865E-02  2548   0.525E-01    0.447E+00
RMM:  11    -0.128151916887E+04    0.27438E-01   -0.43602E-02  2443   0.441E-01    0.160E+00
RMM:  12    -0.128153222605E+04   -0.13057E-01   -0.33994E-02  2414   0.374E-01    0.319E+00
RMM:  13    -0.128151562862E+04    0.16597E-01   -0.17250E-02  2377   0.277E-01    0.113E+00
RMM:  14    -0.128151898111E+04   -0.33525E-02   -0.96624E-03  2397   0.207E-01    0.118E+00
RMM:  15    -0.128151632334E+04    0.26578E-02   -0.49747E-03  2416   0.145E-01    0.828E-01
RMM:  16    -0.128151485767E+04    0.14657E-02   -0.29183E-03  2527   0.105E-01    0.479E-01
RMM:  17    -0.128151478774E+04    0.69934E-04   -0.15302E-03  2451   0.798E-02    0.455E-01
RMM:  18    -0.128151505382E+04   -0.26608E-03   -0.12169E-03  2398   0.688E-02    0.471E-01
RMM:  19    -0.128151494378E+04    0.11004E-03   -0.62787E-04  2333   0.534E-02    0.240E-01
RMM:  20    -0.128151542826E+04   -0.48448E-03   -0.43481E-04  2402   0.412E-02    0.303E-01
RMM:  21    -0.128151549079E+04   -0.62528E-04   -0.25436E-04  2433   0.325E-02    0.140E-01
RMM:  22    -0.128151600289E+04   -0.51211E-03   -0.20807E-04  2476   0.270E-02    0.179E-01
RMM:  23    -0.128151623355E+04   -0.23066E-03   -0.15946E-04  2374   0.249E-02    0.133E-01
RMM:  24    -0.128151666558E+04   -0.43203E-03   -0.10962E-04  2300   0.203E-02    0.890E-02
RMM:  25    -0.128151698117E+04   -0.31559E-03   -0.51978E-05  2026   0.141E-02    0.591E-02
RMM:  26    -0.128151737082E+04   -0.38965E-03   -0.35344E-05  2041   0.102E-02    0.804E-02
RMM:  27    -0.128151763143E+04   -0.26060E-03   -0.22218E-05  1843   0.873E-03    0.462E-02
RMM:  28    -0.128151817042E+04   -0.53899E-03   -0.23142E-05  1943   0.822E-03    0.391E-02
RMM:  29    -0.128151855596E+04   -0.38554E-03   -0.18940E-05  1918   0.725E-03    0.345E-02
RMM:  30    -0.128151900300E+04   -0.44703E-03   -0.16303E-05  1871   0.638E-03    0.298E-02
RMM:  31    -0.128151919425E+04   -0.19125E-03   -0.87478E-06  1697   0.515E-03    0.350E-02
RMM:  32    -0.128151939234E+04   -0.19809E-03   -0.56935E-06  1661   0.416E-03    0.173E-02
RMM:  33    -0.128151974257E+04   -0.35023E-03   -0.72658E-06  1780   0.317E-03    0.136E-02
RMM:  34    -0.128152013345E+04   -0.39088E-03   -0.87741E-06  1857   0.315E-03    0.115E-02
RMM:  35    -0.128152054448E+04   -0.41103E-03   -0.10811E-05  1876   0.312E-03    0.969E-03
RMM:  36    -0.128152089537E+04   -0.35090E-03   -0.10778E-05  1924   0.329E-03    0.748E-03
RMM:  37    -0.128152112431E+04   -0.22893E-03   -0.75165E-06  1750   0.271E-03    0.549E-03
RMM:  38    -0.128152123854E+04   -0.11423E-03   -0.35741E-06  1561   0.236E-03    0.490E-03
RMM:  39    -0.128152136186E+04   -0.12332E-03   -0.47202E-06  1578   0.205E-03    0.366E-03
RMM:  40    -0.128152148371E+04   -0.12186E-03   -0.56265E-06  1691   0.223E-03    0.255E-03
RMM:  41    -0.128152153928E+04   -0.55562E-04   -0.36161E-06  1533   0.193E-03    0.169E-03
RMM:  42    -0.128152156285E+04   -0.23578E-04   -0.21590E-06  1379   0.175E-03    0.140E-03
RMM:  43    -0.128152157348E+04   -0.10621E-04   -0.13875E-06  1260   0.140E-03    0.943E-04
RMM:  44    -0.128152157818E+04   -0.47035E-05   -0.81124E-07  1165   0.117E-03    0.748E-04
RMM:  45    -0.128152157981E+04   -0.16353E-05   -0.50076E-07  1084   0.943E-04    0.604E-04
RMM:  46    -0.128152158087E+04   -0.10555E-05   -0.32741E-07  1041   0.759E-04    0.440E-04
RMM:  47    -0.128152158168E+04   -0.80687E-06   -0.22257E-07   992   0.642E-04
   4 F= -.12905009E+04 E0= -.12904927E+04  d E =-.339983E+00  mag=    16.1412
       N       E                     dE             d eps       ncg     rms          rms(c)
DAV:   1    -0.128155166742E+04   -0.30087E-01   -0.92883E+01  2160   0.203E+01    0.331E+00
RMM:   2    -0.128182271585E+04   -0.27105E+00   -0.25568E+00  2539   0.364E+00    0.296E+00
RMM:   3    -0.128209819475E+04   -0.27548E+00   -0.47148E-01  2738   0.136E+00    0.183E+01
RMM:   4    -0.128172502704E+04    0.37317E+00   -0.18170E-01  2504   0.948E-01    0.232E+00
RMM:   5    -0.128183851059E+04   -0.11348E+00   -0.97517E-02  2398   0.715E-01    0.218E+00
RMM:   6    -0.128183747823E+04    0.10324E-02   -0.28619E-02  2578   0.356E-01    0.203E+00
RMM:   7    -0.128183666124E+04    0.81699E-03   -0.30789E-02  2478   0.352E-01    0.203E+00
RMM:   8    -0.128183412571E+04    0.25355E-02   -0.25492E-02  2509   0.330E-01    0.254E+00
RMM:   9    -0.128182932445E+04    0.48013E-02   -0.13304E-02  2470   0.228E-01    0.238E+00
RMM:  10    -0.128182728531E+04    0.20391E-02   -0.70245E-03  2379   0.161E-01    0.164E+00
RMM:  11    -0.128182562773E+04    0.16576E-02   -0.31140E-03  2315   0.121E-01    0.114E+00
RMM:  12    -0.128182600705E+04   -0.37932E-03   -0.22942E-03  2411   0.934E-02    0.836E-01
RMM:  13    -0.128182563822E+04    0.36882E-03   -0.19763E-03  2355   0.920E-02    0.401E-01
RMM:  14    -0.128182630554E+04   -0.66732E-03   -0.13138E-03  2362   0.774E-02    0.339E-01
RMM:  15    -0.128182658818E+04   -0.28264E-03   -0.91688E-04  2390   0.622E-02    0.425E-01
RMM:  16    -0.128182648409E+04    0.10409E-03   -0.53583E-04  2408   0.476E-02    0.272E-01
RMM:  17    -0.128182666040E+04   -0.17631E-03   -0.31142E-04  2398   0.360E-02    0.210E-01
RMM:  18    -0.128182666207E+04   -0.16637E-05   -0.12775E-04  2262   0.246E-02    0.123E-01
RMM:  19    -0.128182672009E+04   -0.58021E-04   -0.71578E-05  2052   0.172E-02    0.104E-01
RMM:  20    -0.128182675277E+04   -0.32679E-04   -0.34888E-05  1894   0.125E-02    0.734E-02
RMM:  21    -0.128182680810E+04   -0.55327E-04   -0.30608E-05  1886   0.112E-02    0.652E-02
RMM:  22    -0.128182691201E+04   -0.10391E-03   -0.24222E-05  1920   0.996E-03    0.499E-02
RMM:  23    -0.128182696644E+04   -0.54428E-04   -0.20425E-05  1757   0.888E-03    0.519E-02
RMM:  24    -0.128182706713E+04   -0.10070E-03   -0.12410E-05  1834   0.716E-03    0.177E-02
RMM:  25    -0.128182716398E+04   -0.96845E-04   -0.75975E-06  1729   0.483E-03    0.184E-02
RMM:  26    -0.128182720349E+04   -0.39515E-04   -0.38055E-06  1497   0.393E-03    0.150E-02
RMM:  27    -0.128182723390E+04   -0.30408E-04   -0.21628E-06  1411   0.293E-03    0.142E-02
RMM:  28    -0.128182726061E+04   -0.26704E-04   -0.11545E-06  1325   0.233E-03    0.667E-03
RMM:  29    -0.128182728313E+04   -0.22526E-04   -0.76578E-07  1292   0.155E-03    0.884E-03
RMM:  30    -0.128182730203E+04   -0.18903E-04   -0.72783E-07  1265   0.168E-03    0.650E-03
RMM:  31    -0.128182734748E+04   -0.45440E-04   -0.10725E-06  1313   0.138E-03    0.404E-03
RMM:  32    -0.128182737962E+04   -0.32148E-04   -0.88073E-07  1235   0.138E-03    0.356E-03
RMM:  33    -0.128182739441E+04   -0.14783E-04   -0.66590E-07  1164   0.119E-03    0.470E-03
RMM:  34    -0.128182740530E+04   -0.10889E-04   -0.50930E-07  1110   0.112E-03    0.329E-03
RMM:  35    -0.128182742699E+04   -0.21694E-04   -0.66755E-07  1167   0.948E-04    0.237E-03
RMM:  36    -0.128182744732E+04   -0.20330E-04   -0.70224E-07  1203   0.104E-03    0.214E-03
RMM:  37    -0.128182746547E+04   -0.18153E-04   -0.98466E-07  1233   0.104E-03    0.186E-03
RMM:  38    -0.128182747490E+04   -0.94257E-05   -0.81044E-07  1169   0.109E-03    0.200E-03
RMM:  39    -0.128182748063E+04   -0.57277E-05   -0.66024E-07  1124   0.935E-04    0.129E-03
RMM:  40    -0.128182748479E+04   -0.41629E-05   -0.58360E-07  1108   0.940E-04    0.739E-04
RMM:  41    -0.128182748644E+04   -0.16497E-05   -0.42964E-07  1038   0.800E-04    0.459E-04
RMM:  42    -0.128182748718E+04   -0.74258E-06   -0.29699E-07   980   0.719E-04
   5 F= -.12907890E+04 E0= -.12907794E+04  d E =-.628083E+00  mag=    16.1573
       N       E                     dE             d eps       ncg     rms          rms(c)
DAV:   1    -0.128129143907E+04    0.53605E+00   -0.21454E+02  2196   0.308E+01    0.559E+00
RMM:   2    -0.128187480973E+04   -0.58337E+00   -0.57838E+00  2640   0.474E+00    0.512E+00
RMM:   3    -0.128224262432E+04   -0.36781E+00   -0.10603E+00  2536   0.223E+00    0.845E+00
RMM:   4    -0.128193276139E+04    0.30986E+00   -0.37724E-01  2640   0.131E+00    0.444E+00
RMM:   5    -0.128191745778E+04    0.15304E-01   -0.14673E-01  2567   0.703E-01    0.313E+00
RMM:   6    -0.128190768250E+04    0.97753E-02   -0.55196E-02  2574   0.447E-01    0.232E+00
RMM:   7    -0.128190627091E+04    0.14116E-02   -0.46188E-02  2514   0.403E-01    0.231E+00
RMM:   8    -0.128188997117E+04    0.16300E-01   -0.33357E-02  2497   0.370E-01    0.156E+00
RMM:   9    -0.128191714278E+04   -0.27172E-01   -0.28873E-02  2485   0.333E-01    0.470E+00
RMM:  10    -0.128189207992E+04    0.25063E-01   -0.17250E-02  2466   0.289E-01    0.281E+00
RMM:  11    -0.128188632338E+04    0.57565E-02   -0.88529E-03  2418   0.204E-01    0.959E-01
RMM:  12    -0.128189366269E+04   -0.73393E-02   -0.96849E-03  2378   0.217E-01    0.118E+00
RMM:  13    -0.128189141097E+04    0.22517E-02   -0.41971E-03  2375   0.143E-01    0.694E-01
RMM:  14    -0.128189082627E+04    0.58470E-03   -0.17736E-03  2459   0.893E-02    0.592E-01
RMM:  15    -0.128189048231E+04    0.34395E-03   -0.68933E-04  2554   0.525E-02    0.381E-01
RMM:  16    -0.128189033759E+04    0.14473E-03   -0.36803E-04  2499   0.379E-02    0.176E-01
RMM:  17    -0.128189053692E+04   -0.19933E-03   -0.23469E-04  2419   0.316E-02    0.158E-01
RMM:  18    -0.128189057766E+04   -0.40737E-04   -0.12181E-04  2230   0.232E-02    0.971E-02
RMM:  19    -0.128189068411E+04   -0.10645E-03   -0.79911E-05  2156   0.175E-02    0.113E-01
RMM:  20    -0.128189072209E+04   -0.37982E-04   -0.46681E-05  1991   0.143E-02    0.494E-02
RMM:  21    -0.128189078346E+04   -0.61375E-04   -0.20884E-05  1774   0.941E-03    0.471E-02
RMM:  22    -0.128189083552E+04   -0.52051E-04   -0.12843E-05  1703   0.687E-03    0.434E-02
RMM:  23    -0.128189089711E+04   -0.61593E-04   -0.10067E-05  1676   0.640E-03    0.688E-02
RMM:  24    -0.128189098413E+04   -0.87017E-04   -0.83448E-06  1723   0.534E-03    0.601E-02
RMM:  25    -0.128189103024E+04   -0.46112E-04   -0.60727E-06  1571   0.500E-03    0.412E-02
RMM:  26    -0.128189110385E+04   -0.73607E-04   -0.63539E-06  1618   0.482E-03    0.195E-02
RMM:  27    -0.128189116530E+04   -0.61454E-04   -0.42926E-06  1513   0.389E-03    0.185E-02
RMM:  28    -0.128189122362E+04   -0.58316E-04   -0.26656E-06  1442   0.289E-03    0.130E-02
RMM:  29    -0.128189125281E+04   -0.29200E-04   -0.15743E-06  1348   0.249E-03    0.106E-02
RMM:  30    -0.128189130684E+04   -0.54021E-04   -0.16604E-06  1342   0.199E-03    0.600E-03
RMM:  31    -0.128189136884E+04   -0.62004E-04   -0.17312E-06  1352   0.184E-03    0.586E-03
RMM:  32    -0.128189142301E+04   -0.54168E-04   -0.19065E-06  1361   0.190E-03    0.849E-03
RMM:  33    -0.128189147064E+04   -0.47631E-04   -0.18492E-06  1354   0.191E-03    0.515E-03
RMM:  34    -0.128189153277E+04   -0.62131E-04   -0.27224E-06  1446   0.175E-03    0.510E-03
RMM:  35    -0.128189156451E+04   -0.31739E-04   -0.14170E-06  1250   0.156E-03    0.425E-03
RMM:  36    -0.128189160084E+04   -0.36332E-04   -0.17012E-06  1301   0.139E-03    0.262E-03
RMM:  37    -0.128189163778E+04   -0.36939E-04   -0.20889E-06  1361   0.155E-03    0.149E-03
RMM:  38    -0.128189165672E+04   -0.18936E-04   -0.15633E-06  1260   0.139E-03    0.132E-03
RMM:  39    -0.128189166916E+04   -0.12442E-04   -0.11893E-06  1222   0.134E-03    0.150E-03
RMM:  40    -0.128189167607E+04   -0.69123E-05   -0.91533E-07  1148   0.114E-03    0.118E-03
RMM:  41    -0.128189167970E+04   -0.36299E-05   -0.63821E-07  1092   0.103E-03    0.633E-04
RMM:  42    -0.128189168142E+04   -0.17245E-05   -0.44689E-07  1035   0.842E-04    0.399E-04
RMM:  43    -0.128189168278E+04   -0.13533E-05   -0.32365E-07  1006   0.744E-04    0.251E-04
RMM:  44    -0.128189168373E+04   -0.95474E-06   -0.24406E-07   958   0.636E-04
   6 F= -.12908673E+04 E0= -.12908563E+04  d E =-.782841E-01  mag=    16.2001
       N       E                     dE             d eps       ncg     rms          rms(c)
DAV:   1    -0.128192786990E+04   -0.36187E-01   -0.41751E+01  2160   0.135E+01    0.226E+00
RMM:   2    -0.128203060839E+04   -0.10274E+00   -0.10809E+00  2598   0.211E+00    0.139E+00
RMM:   3    -0.128213211654E+04   -0.10151E+00   -0.12873E-01  2599   0.779E-01    0.108E+01
RMM:   4    -0.128199669600E+04    0.13542E+00   -0.67226E-02  2628   0.564E-01    0.118E+00
RMM:   5    -0.128204494596E+04   -0.48250E-01   -0.36071E-02  2405   0.430E-01    0.162E+00
RMM:   6    -0.128204265495E+04    0.22910E-02   -0.12279E-02  2551   0.231E-01    0.115E+00
RMM:   7    -0.128204150405E+04    0.11509E-02   -0.94836E-03  2536   0.194E-01    0.931E-01
RMM:   8    -0.128204176924E+04   -0.26519E-03   -0.68339E-03  2506   0.172E-01    0.968E-01
RMM:   9    -0.128204051854E+04    0.12507E-02   -0.47341E-03  2406   0.144E-01    0.621E-01
RMM:  10    -0.128204017163E+04    0.34691E-03   -0.14774E-03  2486   0.812E-02    0.386E-01
RMM:  11    -0.128204003674E+04    0.13489E-03   -0.67600E-04  2395   0.533E-02    0.252E-01
RMM:  12    -0.128204002471E+04    0.12026E-04   -0.28667E-04  2445   0.337E-02    0.155E-01
RMM:  13    -0.128204006115E+04   -0.36436E-04   -0.15053E-04  2305   0.253E-02    0.147E-01
RMM:  14    -0.128204010289E+04   -0.41744E-04   -0.81002E-05  2163   0.182E-02    0.115E-01
RMM:  15    -0.128204016167E+04   -0.58780E-04   -0.67353E-05  2066   0.163E-02    0.111E-01
RMM:  16    -0.128204021684E+04   -0.55170E-04   -0.70005E-05  2085   0.173E-02    0.722E-02
RMM:  17    -0.128204028299E+04   -0.66147E-04   -0.39365E-05  2034   0.128E-02    0.703E-02
RMM:  18    -0.128204029585E+04   -0.12856E-04   -0.24194E-05  1820   0.993E-03    0.546E-02
RMM:  19    -0.128204030735E+04   -0.11502E-04   -0.11259E-05  1675   0.707E-03    0.264E-02
RMM:  20    -0.128204032207E+04   -0.14725E-04   -0.59025E-06  1550   0.507E-03    0.238E-02
RMM:  21    -0.128204034251E+04   -0.20438E-04   -0.44706E-06  1499   0.420E-03    0.284E-02
RMM:  22    -0.128204035692E+04   -0.14405E-04   -0.34735E-06  1456   0.385E-03    0.168E-02
RMM:  23    -0.128204038495E+04   -0.28035E-04   -0.22885E-06  1422   0.301E-03    0.128E-02
RMM:  24    -0.128204040502E+04   -0.20069E-04   -0.24544E-06  1408   0.326E-03    0.140E-02
RMM:  25    -0.128204043673E+04   -0.31715E-04   -0.21091E-06  1406   0.264E-03    0.893E-03
RMM:  26    -0.128204044780E+04   -0.11068E-04   -0.11763E-06  1327   0.223E-03    0.111E-02
RMM:  27    -0.128204045799E+04   -0.10187E-04   -0.83032E-07  1238   0.187E-03    0.429E-03
RMM:  28    -0.128204046929E+04   -0.11304E-04   -0.59416E-07  1177   0.129E-03    0.379E-03
RMM:  29    -0.128204048288E+04   -0.13585E-04   -0.65525E-07  1170   0.136E-03    0.437E-03
RMM:  30    -0.128204049175E+04   -0.88707E-05   -0.51077E-07  1159   0.118E-03    0.356E-03
RMM:  31    -0.128204050350E+04   -0.11751E-04   -0.56718E-07  1166   0.106E-03    0.206E-03
RMM:  32    -0.128204051396E+04   -0.10456E-04   -0.52181E-07  1144   0.977E-04    0.192E-03
RMM:  33    -0.128204052228E+04   -0.83196E-05   -0.49170E-07  1127   0.874E-04    0.194E-03
RMM:  34    -0.128204052761E+04   -0.53315E-05   -0.39846E-07  1069   0.863E-04    0.236E-03
RMM:  35    -0.128204053458E+04   -0.69682E-05   -0.46045E-07  1126   0.806E-04    0.121E-03
RMM:  36    -0.128204053960E+04   -0.50226E-05   -0.42103E-07  1107   0.807E-04    0.694E-04
RMM:  37    -0.128204054329E+04   -0.36950E-05   -0.40326E-07  1060   0.712E-04    0.499E-04
RMM:  38    -0.128204054604E+04   -0.27488E-05   -0.36313E-07  1104   0.741E-04    0.479E-04
RMM:  39    -0.128204054737E+04   -0.13229E-05   -0.29251E-07  1013   0.646E-04    0.319E-04
RMM:  40    -0.128204054800E+04   -0.63475E-06   -0.20187E-07   953   0.593E-04
   7 F= -.12910100E+04 E0= -.12909996E+04  d E =-.220968E+00  mag=    16.1805
       N       E                     dE             d eps       ncg     rms          rms(c)
DAV:   1    -0.128193139831E+04    0.10915E+00   -0.75969E+01  2160   0.180E+01    0.279E+00
RMM:   2    -0.128210712601E+04   -0.17573E+00   -0.14867E+00  2545   0.263E+00    0.438E+00
RMM:   3    -0.128222414980E+04   -0.11702E+00   -0.32779E-01  2603   0.119E+00    0.427E+00
RMM:   4    -0.128214119548E+04    0.82954E-01   -0.11075E-01  2649   0.676E-01    0.218E+00
RMM:   5    -0.128213505964E+04    0.61358E-02   -0.38862E-02  2565   0.366E-01    0.199E+00
RMM:   6    -0.128212646078E+04    0.85989E-02   -0.15882E-02  2549   0.240E-01    0.148E+00
RMM:   7    -0.128212633057E+04    0.13021E-03   -0.12405E-02  2515   0.211E-01    0.159E+00
RMM:   8    -0.128212763561E+04   -0.13050E-02   -0.13212E-02  2480   0.223E-01    0.164E+00
RMM:   9    -0.128212560856E+04    0.20270E-02   -0.74847E-03  2462   0.169E-01    0.155E+00
RMM:  10    -0.128212270429E+04    0.29043E-02   -0.52965E-03  2441   0.141E-01    0.521E-01
RMM:  11    -0.128212510231E+04   -0.23980E-02   -0.36563E-03  2368   0.122E-01    0.596E-01
RMM:  12    -0.128212428712E+04    0.81520E-03   -0.13757E-03  2334   0.819E-02    0.407E-01
RMM:  13    -0.128212401694E+04    0.27018E-03   -0.64032E-04  2366   0.534E-02    0.218E-01
RMM:  14    -0.128212399293E+04    0.24006E-04   -0.20038E-04  2393   0.290E-02    0.121E-01
RMM:  15    -0.128212404282E+04   -0.49884E-04   -0.13997E-04  2271   0.234E-02    0.148E-01
RMM:  16    -0.128212404121E+04    0.16076E-05   -0.82258E-05  2174   0.189E-02    0.853E-02
RMM:  17    -0.128212408420E+04   -0.42987E-04   -0.34573E-05  2052   0.121E-02    0.798E-02
RMM:  18    -0.128212409736E+04   -0.13168E-04   -0.28583E-05  1813   0.106E-02    0.601E-02
RMM:  19    -0.128212412510E+04   -0.27734E-04   -0.12335E-05  1679   0.744E-03    0.413E-02
RMM:  20    -0.128212413650E+04   -0.11401E-04   -0.68028E-06  1606   0.586E-03    0.312E-02
RMM:  21    -0.128212416283E+04   -0.26330E-04   -0.37324E-06  1509   0.407E-03    0.250E-02
RMM:  22    -0.128212419134E+04   -0.28512E-04   -0.40863E-06  1526   0.422E-03    0.323E-02
RMM:  23    -0.128212423466E+04   -0.43314E-04   -0.42631E-06  1566   0.429E-03    0.227E-02
RMM:  24    -0.128212427712E+04   -0.42463E-04   -0.41704E-06  1505   0.386E-03    0.147E-02
RMM:  25    -0.128212431537E+04   -0.38253E-04   -0.28740E-06  1471   0.333E-03    0.133E-02
RMM:  26    -0.128212433540E+04   -0.20027E-04   -0.15933E-06  1370   0.263E-03    0.103E-02
RMM:  27    -0.128212435759E+04   -0.22190E-04   -0.10870E-06  1323   0.206E-03    0.102E-02
RMM:  28    -0.128212437014E+04   -0.12556E-04   -0.64818E-07  1230   0.155E-03    0.857E-03
RMM:  29    -0.128212439154E+04   -0.21396E-04   -0.65679E-07  1210   0.137E-03    0.457E-03
RMM:  30    -0.128212442865E+04   -0.37114E-04   -0.98987E-07  1268   0.126E-03    0.512E-03
RMM:  31    -0.128212446096E+04   -0.32301E-04   -0.10017E-06  1248   0.144E-03    0.604E-03
RMM:  32    -0.128212447921E+04   -0.18255E-04   -0.76703E-07  1164   0.139E-03    0.320E-03
RMM:  33    -0.128212451546E+04   -0.36250E-04   -0.13582E-06  1300   0.123E-03    0.317E-03
RMM:  34    -0.128212454312E+04   -0.27665E-04   -0.11842E-06  1237   0.128E-03    0.205E-03
RMM:  35    -0.128212455662E+04   -0.13495E-04   -0.79723E-07  1141   0.114E-03    0.273E-03
RMM:  36    -0.128212457129E+04   -0.14673E-04   -0.81266E-07  1165   0.108E-03    0.140E-03
RMM:  37    -0.128212458731E+04   -0.16014E-04   -0.94738E-07  1179   0.105E-03    0.854E-04
RMM:  38    -0.128212459367E+04   -0.63664E-05   -0.63484E-07  1100   0.998E-04    0.644E-04
RMM:  39    -0.128212459811E+04   -0.44370E-05   -0.51336E-07  1018   0.804E-04    0.730E-04
RMM:  40    -0.128212460182E+04   -0.37057E-05   -0.40347E-07  1023   0.791E-04    0.576E-04
RMM:  41    -0.128212460497E+04   -0.31540E-05   -0.38551E-07  1021   0.703E-04    0.278E-04
RMM:  42    -0.128212460634E+04   -0.13656E-05   -0.29193E-07   974   0.693E-04    0.217E-04
RMM:  43    -0.128212460693E+04   -0.59730E-06   -0.20503E-07   890   0.552E-04
   8 F= -.12910976E+04 E0= -.12910867E+04  d E =-.876162E-01  mag=    16.2117
       N       E                     dE             d eps       ncg     rms          rms(c)
DAV:   1    -0.128212526424E+04   -0.65790E-03   -0.52572E+00  2220   0.474E+00    0.742E-01
RMM:   2    -0.128213603913E+04   -0.10775E-01   -0.99753E-02  2546   0.689E-01    0.684E-01
RMM:   3    -0.128216101733E+04   -0.24978E-01   -0.20494E-02  2621   0.296E-01    0.484E+00
RMM:   4    -0.128212955693E+04    0.31460E-01   -0.12290E-02  2531   0.239E-01    0.495E-01
RMM:   5    -0.128213771003E+04   -0.81531E-02   -0.46355E-03  2407   0.153E-01    0.508E-01
RMM:   6    -0.128213843957E+04   -0.72954E-03   -0.14269E-03  2552   0.769E-02    0.478E-01
RMM:   7    -0.128213833187E+04    0.10770E-03   -0.94368E-04  2493   0.626E-02    0.451E-01
RMM:   8    -0.128213811643E+04    0.21544E-03   -0.69553E-04  2480   0.547E-02    0.298E-01
RMM:   9    -0.128213816662E+04   -0.50192E-04   -0.54131E-04  2373   0.487E-02    0.222E-01
RMM:  10    -0.128213813356E+04    0.33057E-04   -0.18862E-04  2379   0.302E-02    0.127E-01
RMM:  11    -0.128213815804E+04   -0.24482E-04   -0.90404E-05  2109   0.189E-02    0.126E-01
RMM:  12    -0.128213815887E+04   -0.82800E-06   -0.47824E-05  2058   0.134E-02    0.998E-02
RMM:  13    -0.128213815718E+04    0.16893E-05   -0.27884E-05  1852   0.110E-02    0.892E-02
RMM:  14    -0.128213815511E+04    0.20704E-05   -0.15728E-05  1688   0.857E-03    0.704E-02
RMM:  15    -0.128213815703E+04   -0.19199E-05   -0.87490E-06  1623   0.648E-03    0.453E-02
RMM:  16    -0.128213816747E+04   -0.10439E-04   -0.73395E-06  1601   0.588E-03    0.442E-02
RMM:  17    -0.128213817309E+04   -0.56169E-05   -0.68006E-06  1595   0.590E-03    0.361E-02
RMM:  18    -0.128213817572E+04   -0.26331E-05   -0.33319E-06  1485   0.429E-03    0.195E-02
RMM:  19    -0.128213817708E+04   -0.13561E-05   -0.22959E-06  1407   0.344E-03    0.154E-02
RMM:  20    -0.128213817803E+04   -0.94969E-06   -0.94882E-07  1320   0.233E-03
   9 F= -.12911103E+04 E0= -.12910995E+04  d E =-.100262E+00  mag=    16.2066
       N       E                     dE             d eps       ncg     rms          rms(c)
DAV:   1    -0.128202478589E+04    0.11339E+00   -0.65944E+01  2160   0.163E+01    0.299E+00
RMM:   2    -0.128222823191E+04   -0.20345E+00   -0.13582E+00  2613   0.245E+00    0.761E+00
RMM:   3    -0.128227049927E+04   -0.42267E-01   -0.30377E-01  2626   0.111E+00    0.378E+00
RMM:   4    -0.128223801664E+04    0.32483E-01   -0.10034E-01  2630   0.637E-01    0.220E+00
RMM:   5    -0.128223289026E+04    0.51264E-02   -0.41583E-02  2491   0.383E-01    0.211E+00
RMM:   6    -0.128222098245E+04    0.11908E-01   -0.13921E-02  2574   0.223E-01    0.152E+00
RMM:   7    -0.128221812258E+04    0.28599E-02   -0.12562E-02  2487   0.216E-01    0.153E+00
RMM:   8    -0.128221407912E+04    0.40435E-02   -0.98581E-03  2529   0.191E-01    0.991E-01
RMM:   9    -0.128221343261E+04    0.64652E-03   -0.49565E-03  2410   0.142E-01    0.702E-01
RMM:  10    -0.128221314242E+04    0.29018E-03   -0.30649E-03  2385   0.116E-01    0.532E-01
RMM:  11    -0.128221397738E+04   -0.83495E-03   -0.26406E-03  2429   0.102E-01    0.728E-01
RMM:  12    -0.128221284188E+04    0.11355E-02   -0.14789E-03  2388   0.820E-02    0.357E-01
RMM:  13    -0.128221325537E+04   -0.41349E-03   -0.76153E-04  2352   0.560E-02    0.490E-01
RMM:  14    -0.128221279561E+04    0.45976E-03   -0.38425E-04  2324   0.431E-02    0.142E-01
RMM:  15    -0.128221298461E+04   -0.18900E-03   -0.17380E-04  2206   0.280E-02    0.118E-01
RMM:  16    -0.128221304393E+04   -0.59319E-04   -0.78250E-05  2143   0.189E-02    0.757E-02
RMM:  17    -0.128221312371E+04   -0.79784E-04   -0.42222E-05  2007   0.133E-02    0.701E-02
RMM:  18    -0.128221319030E+04   -0.66593E-04   -0.26791E-05  1821   0.106E-02    0.561E-02
RMM:  19    -0.128221328544E+04   -0.95136E-04   -0.14799E-05  1743   0.788E-03    0.373E-02
RMM:  20    -0.128221333354E+04   -0.48103E-04   -0.80771E-06  1636   0.600E-03    0.278E-02
RMM:  21    -0.128221338196E+04   -0.48417E-04   -0.42520E-06  1533   0.427E-03    0.219E-02
RMM:  22    -0.128221343194E+04   -0.49978E-04   -0.31634E-06  1500   0.376E-03    0.205E-02
RMM:  23    -0.128221350648E+04   -0.74541E-04   -0.38620E-06  1524   0.360E-03    0.171E-02
RMM:  24    -0.128221360800E+04   -0.10152E-03   -0.48946E-06  1639   0.384E-03    0.128E-02
RMM:  25    -0.128221367582E+04   -0.67819E-04   -0.32630E-06  1517   0.299E-03    0.162E-02
RMM:  26    -0.128221370557E+04   -0.29749E-04   -0.17410E-06  1375   0.269E-03    0.102E-02
RMM:  27    -0.128221374604E+04   -0.40468E-04   -0.12747E-06  1287   0.177E-03    0.947E-03
RMM:  28    -0.128221376373E+04   -0.17693E-04   -0.72923E-07  1188   0.158E-03    0.833E-03
RMM:  29    -0.128221378369E+04   -0.19958E-04   -0.62634E-07  1147   0.127E-03    0.616E-03
RMM:  30    -0.128221383000E+04   -0.46308E-04   -0.12348E-06  1294   0.148E-03    0.478E-03
RMM:  31    -0.128221388475E+04   -0.54754E-04   -0.19453E-06  1352   0.176E-03    0.471E-03
RMM:  32    -0.128221392519E+04   -0.40442E-04   -0.17040E-06  1316   0.172E-03    0.387E-03
RMM:  33    -0.128221394411E+04   -0.18919E-04   -0.10802E-06  1219   0.148E-03    0.507E-03
RMM:  34    -0.128221397262E+04   -0.28511E-04   -0.12342E-06  1234   0.140E-03    0.313E-03
RMM:  35    -0.128221399213E+04   -0.19512E-04   -0.99276E-07  1202   0.127E-03    0.221E-03
RMM:  36    -0.128221400974E+04   -0.17601E-04   -0.10809E-06  1206   0.114E-03    0.118E-03
RMM:  37    -0.128221402286E+04   -0.13128E-04   -0.98200E-07  1199   0.117E-03    0.150E-03
RMM:  38    -0.128221402780E+04   -0.49328E-05   -0.66750E-07  1109   0.988E-04    0.126E-03
RMM:  39    -0.128221403296E+04   -0.51661E-05   -0.55018E-07  1095   0.898E-04    0.597E-04
RMM:  40    -0.128221403729E+04   -0.43289E-05   -0.52140E-07  1098   0.849E-04    0.581E-04
RMM:  41    -0.128221403945E+04   -0.21560E-05   -0.39074E-07  1062   0.789E-04    0.410E-04
RMM:  42    -0.128221404041E+04   -0.96170E-06   -0.27835E-07   979   0.666E-04
  10 F= -.12911861E+04 E0= -.12911763E+04  d E =-.758325E-01  mag=    16.1752
       N       E                     dE             d eps       ncg     rms          rms(c)
DAV:   1    -0.128221271789E+04    0.13216E-02   -0.10382E+00  2280   0.205E+00    0.379E-01
RMM:   2    -0.128221529789E+04   -0.25800E-02   -0.20630E-02  2576   0.305E-01    0.513E-01
RMM:   3    -0.128222045063E+04   -0.51527E-02   -0.52404E-03  2570   0.147E-01    0.191E+00
RMM:   4    -0.128221411596E+04    0.63347E-02   -0.26635E-03  2523   0.113E-01    0.220E-01
RMM:   5    -0.128221547427E+04   -0.13583E-02   -0.94312E-04  2405   0.681E-02    0.229E-01
RMM:   6    -0.128221557438E+04   -0.10010E-03   -0.26110E-04  2509   0.332E-02    0.224E-01
RMM:   7    -0.128221554811E+04    0.26263E-04   -0.19098E-04  2421   0.279E-02    0.171E-01
RMM:   8    -0.128221555942E+04   -0.11312E-04   -0.14761E-04  2352   0.244E-02    0.131E-01
RMM:   9    -0.128221556876E+04   -0.93310E-05   -0.92915E-05  2219   0.206E-02    0.128E-01
RMM:  10    -0.128221557083E+04   -0.20778E-05   -0.45847E-05  1979   0.144E-02    0.111E-01
RMM:  11    -0.128221556034E+04    0.10493E-04   -0.16105E-05  1676   0.906E-03    0.728E-02
RMM:  12    -0.128221556660E+04   -0.62624E-05   -0.85089E-06  1607   0.651E-03    0.584E-02
RMM:  13    -0.128221556667E+04   -0.66764E-07   -0.45082E-06  1511   0.481E-03
  11 F= -.12911876E+04 E0= -.12911775E+04  d E =-.773712E-01  mag=    16.1777
       N       E                     dE             d eps       ncg     rms          rms(c)
DAV:   1    -0.128208691995E+04    0.12865E+00   -0.55519E+01  2160   0.150E+01    0.271E+00
RMM:   2    -0.128224164552E+04   -0.15473E+00   -0.11336E+00  2600   0.221E+00    0.517E+00
RMM:   3    -0.128233562813E+04   -0.93983E-01   -0.27672E-01  2600   0.104E+00    0.412E+00
RMM:   4    -0.128225972381E+04    0.75904E-01   -0.98390E-02  2634   0.620E-01    0.195E+00
RMM:   5    -0.128225709962E+04    0.26242E-02   -0.34245E-02  2508   0.347E-01    0.184E+00
RMM:   6    -0.128224990486E+04    0.71948E-02   -0.13540E-02  2574   0.221E-01    0.143E+00
RMM:   7    -0.128224810462E+04    0.18002E-02   -0.96600E-03  2523   0.184E-01    0.148E+00
RMM:   8    -0.128224665147E+04    0.14532E-02   -0.98715E-03  2525   0.181E-01    0.105E+00
RMM:   9    -0.128224643927E+04    0.21220E-03   -0.52835E-03  2422   0.148E-01    0.947E-01
RMM:  10    -0.128224499076E+04    0.14485E-02   -0.27110E-03  2446   0.111E-01    0.450E-01
RMM:  11    -0.128224581534E+04   -0.82458E-03   -0.23595E-03  2400   0.101E-01    0.542E-01
RMM:  12    -0.128224547372E+04    0.34161E-03   -0.13145E-03  2397   0.793E-02    0.378E-01
RMM:  13    -0.128224537504E+04    0.98678E-04   -0.55474E-04  2364   0.502E-02    0.282E-01
RMM:  14    -0.128224533692E+04    0.38126E-04   -0.22982E-04  2320   0.327E-02    0.162E-01
RMM:  15    -0.128224535252E+04   -0.15599E-04   -0.11648E-04  2202   0.225E-02    0.115E-01
RMM:  16    -0.128224538947E+04   -0.36950E-04   -0.62390E-05  2054   0.157E-02    0.743E-02
RMM:  17    -0.128224542754E+04   -0.38068E-04   -0.31991E-05  1961   0.118E-02    0.546E-02
RMM:  18    -0.128224545219E+04   -0.24656E-04   -0.15817E-05  1731   0.806E-03    0.368E-02
RMM:  19    -0.128224547988E+04   -0.27690E-04   -0.77596E-06  1645   0.594E-03    0.240E-02
RMM:  20    -0.128224550879E+04   -0.28912E-04   -0.55402E-06  1571   0.486E-03    0.275E-02
RMM:  21    -0.128224552903E+04   -0.20235E-04   -0.43074E-06  1520   0.448E-03    0.216E-02
RMM:  22    -0.128224555923E+04   -0.30198E-04   -0.36699E-06  1517   0.388E-03    0.177E-02
RMM:  23    -0.128224558570E+04   -0.26476E-04   -0.37206E-06  1527   0.402E-03    0.189E-02
RMM:  24    -0.128224561222E+04   -0.26518E-04   -0.24647E-06  1456   0.321E-03    0.153E-02
RMM:  25    -0.128224562270E+04   -0.10479E-04   -0.12402E-06  1346   0.233E-03    0.138E-02
RMM:  26    -0.128224562800E+04   -0.53059E-05   -0.75678E-07  1283   0.186E-03    0.702E-03
RMM:  27    -0.128224563905E+04   -0.11047E-04   -0.56949E-07  1215   0.132E-03    0.546E-03
RMM:  28    -0.128224565159E+04   -0.12539E-04   -0.63754E-07  1188   0.138E-03    0.519E-03
RMM:  29    -0.128224567105E+04   -0.19461E-04   -0.83862E-07  1259   0.139E-03    0.714E-03
RMM:  30    -0.128224568274E+04   -0.11689E-04   -0.68470E-07  1179   0.144E-03    0.406E-03
RMM:  31    -0.128224569863E+04   -0.15894E-04   -0.76882E-07  1223   0.114E-03    0.354E-03
RMM:  32    -0.128224570704E+04   -0.84013E-05   -0.51142E-07  1129   0.105E-03    0.339E-03
RMM:  33    -0.128224571345E+04   -0.64102E-05   -0.41072E-07  1097   0.897E-04    0.323E-03
RMM:  34    -0.128224572327E+04   -0.98208E-05   -0.50166E-07  1153   0.916E-04    0.171E-03
RMM:  35    -0.128224573511E+04   -0.11846E-04   -0.73270E-07  1187   0.896E-04    0.137E-03
RMM:  36    -0.128224574217E+04   -0.70604E-05   -0.56948E-07  1132   0.892E-04    0.668E-04
RMM:  37    -0.128224574744E+04   -0.52662E-05   -0.48832E-07  1074   0.773E-04    0.617E-04
RMM:  38    -0.128224574974E+04   -0.23027E-05   -0.32067E-07  1011   0.743E-04    0.512E-04
RMM:  39    -0.128224575205E+04   -0.23058E-05   -0.26191E-07   962   0.592E-04    0.369E-04
RMM:  40    -0.128224575439E+04   -0.23424E-05   -0.25239E-07  1010   0.633E-04    0.246E-04
RMM:  41    -0.128224575563E+04   -0.12391E-05   -0.20941E-07   941   0.549E-04    0.190E-04
RMM:  42    -0.128224575618E+04   -0.55096E-06   -0.14410E-07   897   0.528E-04
  12 F= -.12912168E+04 E0= -.12912068E+04  d E =-.291965E-01  mag=    16.1743
       N       E                     dE             d eps       ncg     rms          rms(c)
DAV:   1    -0.128223825006E+04    0.75056E-02   -0.66233E+00  2160   0.519E+00    0.930E-01
RMM:   2    -0.128225503963E+04   -0.16790E-01   -0.13235E-01  2580   0.763E-01    0.989E-01
RMM:   3    -0.128230047579E+04   -0.45436E-01   -0.31477E-02  2559   0.358E-01    0.721E+00
RMM:   4    -0.128223847448E+04    0.62001E-01   -0.22629E-02  2465   0.322E-01    0.827E-01
RMM:   5    -0.128225574572E+04   -0.17271E-01   -0.93409E-03  2351   0.210E-01    0.674E-01
RMM:   6    -0.128225767816E+04   -0.19324E-02   -0.28887E-03  2516   0.105E-01    0.636E-01
RMM:   7    -0.128225703138E+04    0.64678E-03   -0.12869E-03  2509   0.709E-02    0.521E-01
RMM:   8    -0.128225675327E+04    0.27811E-03   -0.81984E-04  2519   0.586E-02    0.406E-01
RMM:   9    -0.128225669470E+04    0.58567E-04   -0.67939E-04  2419   0.541E-02    0.313E-01
RMM:  10    -0.128225659421E+04    0.10049E-03   -0.36527E-04  2425   0.407E-02    0.162E-01
RMM:  11    -0.128225663958E+04   -0.45366E-04   -0.13527E-04  2296   0.242E-02    0.138E-01
RMM:  12    -0.128225666645E+04   -0.26874E-04   -0.89515E-05  2163   0.193E-02    0.138E-01
RMM:  13    -0.128225665464E+04    0.11808E-04   -0.48169E-05  1998   0.148E-02    0.101E-01
RMM:  14    -0.128225665885E+04   -0.42042E-05   -0.25469E-05  1838   0.104E-02    0.100E-01
RMM:  15    -0.128225665371E+04    0.51414E-05   -0.15221E-05  1694   0.825E-03    0.731E-02
RMM:  16    -0.128225666502E+04   -0.11314E-04   -0.12632E-05  1716   0.758E-03    0.597E-02
RMM:  17    -0.128225667755E+04   -0.12532E-04   -0.16784E-05  1766   0.859E-03    0.508E-02
RMM:  18    -0.128225668610E+04   -0.85510E-05   -0.83401E-06  1628   0.661E-03    0.335E-02
RMM:  19    -0.128225668888E+04   -0.27789E-05   -0.46717E-06  1531   0.504E-03    0.267E-02
RMM:  20    -0.128225669141E+04   -0.25291E-05   -0.22430E-06  1444   0.350E-03    0.166E-02
RMM:  21    -0.128225669412E+04   -0.27073E-05   -0.20305E-06  1358   0.302E-03    0.155E-02
RMM:  22    -0.128225669753E+04   -0.34068E-05   -0.13761E-06  1340   0.273E-03    0.136E-02
RMM:  23    -0.128225670163E+04   -0.41025E-05   -0.10737E-06  1298   0.226E-03    0.136E-02
RMM:  24    -0.128225670451E+04   -0.28841E-05   -0.77892E-07  1237   0.201E-03    0.107E-02
RMM:  25    -0.128225670779E+04   -0.32782E-05   -0.61108E-07  1231   0.165E-03    0.683E-03
RMM:  26    -0.128225671015E+04   -0.23612E-05   -0.37701E-07  1152   0.136E-03    0.433E-03
RMM:  27    -0.128225671153E+04   -0.13775E-05   -0.22263E-07  1096   0.959E-04    0.351E-03
RMM:  28    -0.128225671352E+04   -0.19891E-05   -0.15531E-07  1054   0.790E-04    0.218E-03
RMM:  29    -0.128225671535E+04   -0.18284E-05   -0.13429E-07   965   0.677E-04    0.377E-03
RMM:  30    -0.128225671738E+04   -0.20320E-05   -0.13427E-07   963   0.678E-04    0.147E-03
RMM:  31    -0.128225671951E+04   -0.21327E-05   -0.11384E-07   927   0.490E-04    0.131E-03
RMM:  32    -0.128225672050E+04   -0.98348E-06   -0.77422E-08   869   0.499E-04
  13 F= -.12912282E+04 E0= -.12912182E+04  d E =-.405496E-01  mag=    16.1760
       N       E                     dE             d eps       ncg     rms          rms(c)
DAV:   1    -0.128219096825E+04    0.65751E-01   -0.36307E+01  2160   0.125E+01    0.209E+00
RMM:   2    -0.128228411902E+04   -0.93151E-01   -0.73146E-01  2582   0.178E+00    0.297E+00
RMM:   3    -0.128236194726E+04   -0.77828E-01   -0.17226E-01  2554   0.860E-01    0.349E+00
RMM:   4    -0.128230257007E+04    0.59377E-01   -0.61784E-02  2651   0.498E-01    0.160E+00
RMM:   5    -0.128229795117E+04    0.46189E-02   -0.18889E-02  2501   0.267E-01    0.145E+00
RMM:   6    -0.128229271190E+04    0.52393E-02   -0.72598E-03  2595   0.156E-01    0.947E-01
RMM:   7    -0.128229203565E+04    0.67625E-03   -0.53431E-03  2525   0.136E-01    0.724E-01
RMM:   8    -0.128229416045E+04   -0.21248E-02   -0.44836E-03  2506   0.131E-01    0.118E+00
RMM:   9    -0.128229258295E+04    0.15775E-02   -0.25724E-03  2473   0.100E-01    0.755E-01
RMM:  10    -0.128229257197E+04    0.10982E-04   -0.26105E-03  2417   0.976E-02    0.696E-01
RMM:  11    -0.128229260556E+04   -0.33592E-04   -0.15765E-03  2467   0.827E-02    0.562E-01
RMM:  12    -0.128229232776E+04    0.27780E-03   -0.75621E-04  2332   0.632E-02    0.320E-01
RMM:  13    -0.128229225067E+04    0.77088E-04   -0.29094E-04  2402   0.362E-02    0.207E-01
RMM:  14    -0.128229226396E+04   -0.13292E-04   -0.12237E-04  2279   0.233E-02    0.130E-01
RMM:  15    -0.128229229156E+04   -0.27595E-04   -0.82892E-05  2110   0.186E-02    0.104E-01
RMM:  16    -0.128229233385E+04   -0.42290E-04   -0.65419E-05  2059   0.172E-02    0.844E-02
RMM:  17    -0.128229237800E+04   -0.44152E-04   -0.55105E-05  1999   0.158E-02    0.106E-01
RMM:  18    -0.128229237629E+04    0.17114E-05   -0.25800E-05  1787   0.113E-02    0.427E-02
RMM:  19    -0.128229239413E+04   -0.17846E-04   -0.12349E-05  1688   0.785E-03    0.604E-02
RMM:  20    -0.128229239076E+04    0.33742E-05   -0.59404E-06  1590   0.555E-03    0.530E-02
RMM:  21    -0.128229239404E+04   -0.32858E-05   -0.38663E-06  1525   0.423E-03    0.377E-02
RMM:  22    -0.128229240561E+04   -0.11562E-04   -0.37938E-06  1535   0.414E-03    0.269E-02
RMM:  23    -0.128229242275E+04   -0.17140E-04   -0.39416E-06  1517   0.411E-03    0.155E-02
RMM:  24    -0.128229244197E+04   -0.19222E-04   -0.29300E-06  1475   0.378E-03    0.156E-02
RMM:  25    -0.128229245597E+04   -0.13999E-04   -0.15235E-06  1370   0.273E-03    0.144E-02
RMM:  26    -0.128229246351E+04   -0.75451E-05   -0.11032E-06  1328   0.240E-03    0.905E-03
RMM:  27    -0.128229247737E+04   -0.13859E-04   -0.75761E-07  1295   0.163E-03    0.524E-03
RMM:  28    -0.128229248455E+04   -0.71817E-05   -0.55958E-07  1237   0.151E-03    0.590E-03
RMM:  29    -0.128229249254E+04   -0.79911E-05   -0.47400E-07  1167   0.124E-03    0.503E-03
RMM:  30    -0.128229250057E+04   -0.80269E-05   -0.41530E-07  1158   0.113E-03    0.336E-03
RMM:  31    -0.128229251295E+04   -0.12374E-04   -0.54906E-07  1202   0.925E-04    0.178E-03
RMM:  32    -0.128229252098E+04   -0.80307E-05   -0.40203E-07  1142   0.904E-04    0.233E-03
RMM:  33    -0.128229252547E+04   -0.44942E-05   -0.33122E-07  1064   0.800E-04    0.339E-03
RMM:  34    -0.128229253043E+04   -0.49594E-05   -0.31983E-07  1073   0.799E-04    0.212E-03
RMM:  35    -0.128229253675E+04   -0.63199E-05   -0.41932E-07  1139   0.732E-04    0.727E-04
RMM:  36    -0.128229254006E+04   -0.33107E-05   -0.31235E-07  1060   0.732E-04    0.569E-04
RMM:  37    -0.128229254233E+04   -0.22718E-05   -0.26553E-07   992   0.593E-04    0.455E-04
RMM:  38    -0.128229254400E+04   -0.16641E-05   -0.21861E-07   988   0.603E-04    0.445E-04
RMM:  39    -0.128229254504E+04   -0.10423E-05   -0.18192E-07   916   0.505E-04    0.342E-04
RMM:  40    -0.128229254564E+04   -0.60107E-06   -0.13820E-07   889   0.499E-04
  14 F= -.12912635E+04 E0= -.12912530E+04  d E =-.353569E-01  mag=    16.1776
       N       E                     dE             d eps       ncg     rms          rms(c)
DAV:   1    -0.128229190701E+04    0.63803E-03   -0.38315E-01  2268   0.128E+00    0.213E-01
RMM:   2    -0.128229269001E+04   -0.78300E-03   -0.75295E-03  2550   0.182E-01    0.206E-01
RMM:   3    -0.128229447681E+04   -0.17868E-02   -0.16144E-03  2537   0.843E-02    0.988E-01
RMM:   4    -0.128229247294E+04    0.20039E-02   -0.80837E-04  2574   0.614E-02    0.125E-01
RMM:   5    -0.128229288572E+04   -0.41278E-03   -0.24670E-04  2309   0.336E-02    0.118E-01
RMM:   6    -0.128229293067E+04   -0.44956E-04   -0.69867E-05  2422   0.171E-02    0.112E-01
RMM:   7    -0.128229293414E+04   -0.34692E-05   -0.50665E-05  2077   0.147E-02    0.100E-01
RMM:   8    -0.128229295301E+04   -0.18871E-04   -0.48786E-05  2082   0.144E-02    0.975E-02
RMM:   9    -0.128229294355E+04    0.94667E-05   -0.36545E-05  1934   0.129E-02    0.731E-02
RMM:  10    -0.128229294768E+04   -0.41284E-05   -0.12530E-05  1671   0.775E-03    0.544E-02
RMM:  11    -0.128229294792E+04   -0.24324E-06   -0.49743E-06  1542   0.536E-03
  15 F= -.12912640E+04 E0= -.12912534E+04  d E =-.358220E-01  mag=    16.1774
       N       E                     dE             d eps       ncg     rms          rms(c)
DAV:   1    -0.128224885143E+04    0.44096E-01   -0.24422E+01  2160   0.104E+01    0.158E+00
RMM:   2    -0.128231006536E+04   -0.61214E-01   -0.51361E-01  2586   0.152E+00    0.233E+00
RMM:   3    -0.128234705517E+04   -0.36990E-01   -0.97696E-02  2560   0.666E-01    0.274E+00
RMM:   4    -0.128231963051E+04    0.27425E-01   -0.29048E-02  2704   0.350E-01    0.132E+00
RMM:   5    -0.128231769798E+04    0.19325E-02   -0.95191E-03  2586   0.186E-01    0.130E+00
RMM:   6    -0.128231450979E+04    0.31882E-02   -0.43513E-03  2608   0.120E-01    0.637E-01
RMM:   7    -0.128231554784E+04   -0.10380E-02   -0.36023E-03  2487   0.110E-01    0.649E-01
RMM:   8    -0.128231650335E+04   -0.95551E-03   -0.33664E-03  2514   0.106E-01    0.970E-01
RMM:   9    -0.128231489601E+04    0.16073E-02   -0.20524E-03  2458   0.915E-02    0.507E-01
RMM:  10    -0.128231496263E+04   -0.66620E-04   -0.13154E-03  2466   0.730E-02    0.371E-01
RMM:  11    -0.128231528178E+04   -0.31915E-03   -0.90647E-04  2404   0.632E-02    0.386E-01
RMM:  12    -0.128231499873E+04    0.28305E-03   -0.35249E-04  2334   0.412E-02    0.207E-01
RMM:  13    -0.128231498309E+04    0.15645E-04   -0.14161E-04  2271   0.250E-02    0.109E-01
RMM:  14    -0.128231500070E+04   -0.17611E-04   -0.44100E-05  2045   0.139E-02    0.687E-02
RMM:  15    -0.128231500389E+04   -0.31987E-05   -0.19847E-05  1756   0.920E-03    0.643E-02
RMM:  16    -0.128231500593E+04   -0.20334E-05   -0.13532E-05  1721   0.770E-03    0.643E-02
RMM:  17    -0.128231502062E+04   -0.14694E-04   -0.20351E-05  1848   0.937E-03    0.768E-02
RMM:  18    -0.128231503556E+04   -0.14942E-04   -0.24178E-05  1894   0.101E-02    0.594E-02
RMM:  19    -0.128231505176E+04   -0.16201E-04   -0.15193E-05  1702   0.877E-03    0.528E-02
RMM:  20    -0.128231505980E+04   -0.80330E-05   -0.59686E-06  1576   0.570E-03    0.421E-02
RMM:  21    -0.128231506275E+04   -0.29535E-05   -0.28526E-06  1444   0.380E-03    0.299E-02
RMM:  22    -0.128231506937E+04   -0.66237E-05   -0.18648E-06  1413   0.312E-03    0.181E-02
RMM:  23    -0.128231508018E+04   -0.10805E-04   -0.14924E-06  1335   0.254E-03    0.111E-02
RMM:  24    -0.128231508765E+04   -0.74687E-05   -0.97309E-07  1279   0.214E-03    0.112E-02
RMM:  25    -0.128231509793E+04   -0.10282E-04   -0.77730E-07  1276   0.183E-03    0.109E-02
RMM:  26    -0.128231510833E+04   -0.10401E-04   -0.82931E-07  1274   0.188E-03    0.915E-03
RMM:  27    -0.128231512481E+04   -0.16484E-04   -0.86695E-07  1298   0.169E-03    0.593E-03
RMM:  28    -0.128231513405E+04   -0.92328E-05   -0.66978E-07  1246   0.162E-03    0.645E-03
RMM:  29    -0.128231513876E+04   -0.47123E-05   -0.41043E-07  1158   0.116E-03    0.449E-03
RMM:  30    -0.128231514472E+04   -0.59564E-05   -0.28937E-07  1104   0.955E-04    0.247E-03
RMM:  31    -0.128231515273E+04   -0.80094E-05   -0.29572E-07  1072   0.801E-04    0.166E-03
RMM:  32    -0.128231516244E+04   -0.97102E-05   -0.36389E-07  1110   0.787E-04    0.259E-03
RMM:  33    -0.128231516742E+04   -0.49856E-05   -0.28564E-07  1038   0.802E-04    0.180E-03
RMM:  34    -0.128231517375E+04   -0.63251E-05   -0.30204E-07  1038   0.665E-04    0.947E-04
RMM:  35    -0.128231517842E+04   -0.46758E-05   -0.26762E-07  1038   0.654E-04    0.841E-04
RMM:  36    -0.128231518324E+04   -0.48136E-05   -0.27435E-07  1030   0.592E-04    0.594E-04
RMM:  37    -0.128231518778E+04   -0.45416E-05   -0.30579E-07  1044   0.650E-04    0.511E-04
RMM:  38    -0.128231519039E+04   -0.26138E-05   -0.27291E-07  1031   0.598E-04    0.380E-04
RMM:  39    -0.128231519173E+04   -0.13426E-05   -0.19518E-07   940   0.574E-04    0.271E-04
RMM:  40    -0.128231519275E+04   -0.10114E-05   -0.17201E-07   891   0.494E-04    0.191E-04
RMM:  41    -0.128231519331E+04   -0.56070E-06   -0.12804E-07   873   0.490E-04
  16 F= -.12912863E+04 E0= -.12912760E+04  d E =-.223259E-01  mag=    16.1706
       N       E                     dE             d eps       ncg     rms          rms(c)
DAV:   1    -0.128231433585E+04    0.85689E-03   -0.66112E-01  2256   0.171E+00    0.261E-01
RMM:   2    -0.128231581864E+04   -0.14828E-02   -0.13783E-02  2579   0.249E-01    0.316E-01
RMM:   3    -0.128231808362E+04   -0.22650E-02   -0.25478E-03  2557   0.108E-01    0.125E+00
RMM:   4    -0.128231536067E+04    0.27230E-02   -0.13249E-03  2579   0.785E-02    0.147E-01
RMM:   5    -0.128231604541E+04   -0.68474E-03   -0.42674E-04  2394   0.470E-02    0.173E-01
RMM:   6    -0.128231608220E+04   -0.36789E-04   -0.13465E-04  2533   0.235E-02    0.152E-01
RMM:   7    -0.128231606655E+04    0.15650E-04   -0.90912E-05  2304   0.193E-02    0.104E-01
RMM:   8    -0.128231611254E+04   -0.45990E-04   -0.82204E-05  2284   0.178E-02    0.133E-01
RMM:   9    -0.128231609378E+04    0.18759E-04   -0.61589E-05  2071   0.170E-02    0.119E-01
RMM:  10    -0.128231609889E+04   -0.51103E-05   -0.26368E-05  1880   0.109E-02    0.964E-02
RMM:  11    -0.128231608562E+04    0.13271E-04   -0.11653E-05  1627   0.745E-03    0.483E-02
RMM:  12    -0.128231609471E+04   -0.90916E-05   -0.49374E-06  1530   0.503E-03    0.370E-02
RMM:  13    -0.128231609645E+04   -0.17425E-05   -0.21662E-06  1403   0.361E-03    0.255E-02
RMM:  14    -0.128231609804E+04   -0.15825E-05   -0.84600E-07  1301   0.226E-03    0.266E-02
RMM:  15    -0.128231609848E+04   -0.44273E-06   -0.54717E-07  1273   0.175E-03
  17 F= -.12912872E+04 E0= -.12912767E+04  d E =-.232164E-01  mag=    16.1715
       N       E                     dE             d eps       ncg     rms          rms(c)
DAV:   1    -0.128230012142E+04    0.15977E-01   -0.12819E+01  2160   0.776E+00    0.106E+00
RMM:   2    -0.128233149583E+04   -0.31374E-01   -0.28925E-01  2589   0.111E+00    0.144E+00
RMM:   3    -0.128235033248E+04   -0.18837E-01   -0.47066E-02  2568   0.474E-01    0.212E+00
RMM:   4    -0.128233434720E+04    0.15985E-01   -0.14839E-02  2695   0.250E-01    0.904E-01
RMM:   5    -0.128233391707E+04    0.43013E-03   -0.46207E-03  2597   0.126E-01    0.789E-01
RMM:   6    -0.128233297626E+04    0.94081E-03   -0.18345E-03  2628   0.782E-02    0.346E-01
RMM:   7    -0.128233421187E+04   -0.12356E-02   -0.20614E-03  2420   0.868E-02    0.574E-01
RMM:   8    -0.128233335938E+04    0.85250E-03   -0.14338E-03  2462   0.761E-02    0.337E-01
RMM:   9    -0.128233353128E+04   -0.17191E-03   -0.10039E-03  2427   0.635E-02    0.329E-01
RMM:  10    -0.128233338090E+04    0.15038E-03   -0.51685E-04  2432   0.472E-02    0.210E-01
RMM:  11    -0.128233332526E+04    0.55643E-04   -0.22655E-04  2300   0.315E-02    0.132E-01
RMM:  12    -0.128233332861E+04   -0.33527E-05   -0.93626E-05  2148   0.201E-02    0.799E-02
RMM:  13    -0.128233334784E+04   -0.19233E-04   -0.38188E-05  1939   0.130E-02    0.599E-02
RMM:  14    -0.128233335153E+04   -0.36850E-05   -0.16478E-05  1693   0.859E-03    0.391E-02
RMM:  15    -0.128233335760E+04   -0.60732E-05   -0.56699E-06  1582   0.494E-03    0.307E-02
RMM:  16    -0.128233336203E+04   -0.44306E-05   -0.29320E-06  1468   0.368E-03    0.268E-02
RMM:  17    -0.128233336899E+04   -0.69579E-05   -0.30751E-06  1484   0.367E-03    0.250E-02
RMM:  18    -0.128233339185E+04   -0.22856E-04   -0.43520E-06  1574   0.446E-03    0.244E-02
RMM:  19    -0.128233340536E+04   -0.13513E-04   -0.39328E-06  1502   0.428E-03    0.229E-02
RMM:  20    -0.128233341178E+04   -0.64211E-05   -0.21907E-06  1440   0.355E-03    0.145E-02
RMM:  21    -0.128233341560E+04   -0.38208E-05   -0.98928E-07  1315   0.230E-03    0.132E-02
RMM:  22    -0.128233342106E+04   -0.54634E-05   -0.56137E-07  1248   0.177E-03    0.707E-03
RMM:  23    -0.128233342684E+04   -0.57770E-05   -0.31353E-07  1167   0.105E-03    0.565E-03
RMM:  24    -0.128233343196E+04   -0.51230E-05   -0.30120E-07  1127   0.116E-03    0.649E-03
RMM:  25    -0.128233344105E+04   -0.90863E-05   -0.33592E-07  1179   0.115E-03    0.528E-03
RMM:  26    -0.128233345258E+04   -0.11531E-04   -0.47093E-07  1207   0.127E-03    0.512E-03
RMM:  27    -0.128233346348E+04   -0.10897E-04   -0.46229E-07  1215   0.128E-03    0.327E-03
RMM:  28    -0.128233346921E+04   -0.57336E-05   -0.32244E-07  1119   0.983E-04    0.437E-03
RMM:  29    -0.128233347387E+04   -0.46557E-05   -0.23176E-07  1047   0.853E-04    0.265E-03
RMM:  30    -0.128233347938E+04   -0.55157E-05   -0.18589E-07   992   0.626E-04    0.144E-03
RMM:  31    -0.128233348569E+04   -0.63109E-05   -0.20434E-07  1014   0.656E-04    0.186E-03
RMM:  32    -0.128233348991E+04   -0.42146E-05   -0.18118E-07  1003   0.648E-04    0.163E-03
RMM:  33    -0.128233349513E+04   -0.52261E-05   -0.20546E-07  1011   0.610E-04    0.112E-03
RMM:  34    -0.128233349882E+04   -0.36885E-05   -0.19162E-07  1010   0.612E-04    0.854E-04
RMM:  35    -0.128233350273E+04   -0.39097E-05   -0.21395E-07  1019   0.545E-04    0.657E-04
RMM:  36    -0.128233350657E+04   -0.38382E-05   -0.22452E-07  1063   0.597E-04    0.441E-04
RMM:  37    -0.128233350870E+04   -0.21261E-05   -0.22390E-07  1009   0.565E-04    0.340E-04
RMM:  38    -0.128233350975E+04   -0.10494E-05   -0.16995E-07   928   0.536E-04    0.504E-04
RMM:  39    -0.128233351028E+04   -0.53917E-06   -0.13210E-07   852   0.475E-04
  18 F= -.12913056E+04 E0= -.12912957E+04  d E =-.183793E-01  mag=    16.1557
       N       E                     dE             d eps       ncg     rms          rms(c)
DAV:   1    -0.128233302320E+04    0.48655E-03   -0.23973E-01  2304   0.106E+00    0.145E-01
RMM:   2    -0.128233355379E+04   -0.53060E-03   -0.54105E-03  2584   0.153E-01    0.197E-01
RMM:   3    -0.128233405851E+04   -0.50471E-03   -0.87724E-04  2574   0.642E-02    0.478E-01
RMM:   4    -0.128233354931E+04    0.50919E-03   -0.35527E-04  2619   0.394E-02    0.109E-01
RMM:   5    -0.128233361870E+04   -0.69390E-04   -0.11750E-04  2226   0.211E-02    0.813E-02
RMM:   6    -0.128233362473E+04   -0.60237E-05   -0.36320E-05  2267   0.110E-02    0.480E-02
RMM:   7    -0.128233364767E+04   -0.22941E-04   -0.36207E-05  2038   0.121E-02    0.821E-02
RMM:   8    -0.128233364336E+04    0.43030E-05   -0.27931E-05  1980   0.112E-02    0.585E-02
RMM:   9    -0.128233364113E+04    0.22313E-05   -0.19423E-05  1778   0.946E-03    0.390E-02
RMM:  10    -0.128233364169E+04   -0.55866E-06   -0.58951E-06  1531   0.558E-03
  19 F= -.12913059E+04 E0= -.12912961E+04  d E =-.186435E-01  mag=    16.1544
       N       E                     dE             d eps       ncg     rms          rms(c)
DAV:   1    -0.128233562657E+04   -0.19854E-02   -0.52034E+00  2160   0.499E+00    0.588E-01
RMM:   2    -0.128234762154E+04   -0.11995E-01   -0.11875E-01  2589   0.693E-01    0.643E-01
RMM:   3    -0.128235527451E+04   -0.76530E-02   -0.15836E-02  2526   0.288E-01    0.143E+00
RMM:   4    -0.128234879172E+04    0.64828E-02   -0.57608E-03  2722   0.158E-01    0.504E-01
RMM:   5    -0.128234876238E+04    0.29342E-04   -0.13688E-03  2538   0.732E-02    0.337E-01
RMM:   6    -0.128234887408E+04   -0.11170E-03   -0.58506E-04  2552   0.461E-02    0.255E-01
RMM:   7    -0.128234898945E+04   -0.11537E-03   -0.50893E-04  2489   0.469E-02    0.270E-01
RMM:   8    -0.128234905860E+04   -0.69145E-04   -0.39336E-04  2442   0.408E-02    0.240E-01
RMM:   9    -0.128234908197E+04   -0.23376E-04   -0.35352E-04  2398   0.393E-02    0.216E-01
RMM:  10    -0.128234902603E+04    0.55944E-04   -0.13410E-04  2380   0.254E-02    0.834E-02
RMM:  11    -0.128234904010E+04   -0.14072E-04   -0.51154E-05  1965   0.150E-02    0.589E-02
RMM:  12    -0.128234905117E+04   -0.11067E-04   -0.24197E-05  1769   0.102E-02    0.466E-02
RMM:  13    -0.128234905234E+04   -0.11734E-05   -0.10145E-05  1630   0.716E-03    0.272E-02
RMM:  14    -0.128234905510E+04   -0.27583E-05   -0.37761E-06  1487   0.427E-03    0.179E-02
RMM:  15    -0.128234905870E+04   -0.36027E-05   -0.16500E-06  1393   0.297E-03    0.172E-02
RMM:  16    -0.128234906101E+04   -0.23037E-05   -0.16270E-06  1401   0.289E-03    0.162E-02
RMM:  17    -0.128234906505E+04   -0.40388E-05   -0.18661E-06  1407   0.300E-03    0.149E-02
RMM:  18    -0.128234906970E+04   -0.46508E-05   -0.14037E-06  1385   0.285E-03    0.131E-02
RMM:  19    -0.128234907289E+04   -0.31939E-05   -0.82929E-07  1297   0.211E-03    0.892E-03
RMM:  20    -0.128234907460E+04   -0.17130E-05   -0.40837E-07  1222   0.161E-03    0.535E-03
RMM:  21    -0.128234907541E+04   -0.80810E-06   -0.19476E-07  1114   0.969E-04
  20 F= -.12913225E+04 E0= -.12913127E+04  d E =-.166778E-01  mag=    16.1520
       N       E                     dE             d eps       ncg     rms          rms(c)
DAV:   1    -0.128228930461E+04    0.59770E-01   -0.28164E+01  2160   0.116E+01    0.137E+00
RMM:   2    -0.128235578046E+04   -0.66476E-01   -0.64708E-01  2599   0.162E+00    0.151E+00
RMM:   3    -0.128238758291E+04   -0.31802E-01   -0.86407E-02  2523   0.671E-01    0.241E+00
RMM:   4    -0.128236432152E+04    0.23261E-01   -0.28191E-02  2733   0.344E-01    0.108E+00
RMM:   5    -0.128236292580E+04    0.13957E-02   -0.73160E-03  2533   0.167E-01    0.987E-01
RMM:   6    -0.128236143972E+04    0.14861E-02   -0.33656E-03  2619   0.106E-01    0.521E-01
RMM:   7    -0.128236245141E+04   -0.10117E-02   -0.26131E-03  2472   0.104E-01    0.693E-01
RMM:   8    -0.128236254428E+04   -0.92877E-04   -0.23877E-03  2471   0.996E-02    0.579E-01
RMM:   9    -0.128236250030E+04    0.43986E-04   -0.20146E-03  2412   0.913E-02    0.435E-01
RMM:  10    -0.128236225916E+04    0.24114E-03   -0.10687E-03  2458   0.696E-02    0.228E-01
RMM:  11    -0.128236232968E+04   -0.70520E-04   -0.43180E-04  2353   0.431E-02    0.225E-01
RMM:  12    -0.128236222903E+04    0.10065E-03   -0.17040E-04  2281   0.278E-02    0.992E-02
RMM:  13    -0.128236226018E+04   -0.31148E-04   -0.69611E-05  2058   0.172E-02    0.659E-02
RMM:  14    -0.128236227219E+04   -0.12020E-04   -0.23677E-05  1843   0.980E-03    0.392E-02
RMM:  15    -0.128236228744E+04   -0.15248E-04   -0.95431E-06  1672   0.629E-03    0.345E-02
RMM:  16    -0.128236230093E+04   -0.13490E-04   -0.11358E-05  1658   0.707E-03    0.456E-02
RMM:  17    -0.128236231673E+04   -0.15794E-04   -0.10036E-05  1647   0.681E-03    0.321E-02
RMM:  18    -0.128236233094E+04   -0.14208E-04   -0.86473E-06  1603   0.643E-03    0.288E-02
RMM:  19    -0.128236234406E+04   -0.13125E-04   -0.40060E-06  1502   0.460E-03    0.203E-02
RMM:  20    -0.128236234881E+04   -0.47530E-05   -0.19341E-06  1379   0.314E-03    0.159E-02
RMM:  21    -0.128236235236E+04   -0.35481E-05   -0.91992E-07  1333   0.222E-03    0.137E-02
RMM:  22    -0.128236235623E+04   -0.38700E-05   -0.58612E-07  1264   0.173E-03    0.100E-02
RMM:  23    -0.128236236416E+04   -0.79243E-05   -0.64532E-07  1200   0.165E-03    0.907E-03
RMM:  24    -0.128236237255E+04   -0.83912E-05   -0.74384E-07  1263   0.184E-03    0.849E-03
RMM:  25    -0.128236238366E+04   -0.11112E-04   -0.75381E-07  1296   0.183E-03    0.919E-03
RMM:  26    -0.128236239326E+04   -0.96023E-05   -0.79406E-07  1301   0.196E-03    0.731E-03
RMM:  27    -0.128236240186E+04   -0.86023E-05   -0.54813E-07  1253   0.155E-03    0.436E-03
RMM:  28    -0.128236240604E+04   -0.41775E-05   -0.32814E-07  1146   0.117E-03    0.412E-03
RMM:  29    -0.128236240966E+04   -0.36175E-05   -0.23462E-07  1079   0.925E-04    0.295E-03
RMM:  30    -0.128236241452E+04   -0.48568E-05   -0.18978E-07  1015   0.779E-04    0.192E-03
RMM:  31    -0.128236241987E+04   -0.53541E-05   -0.18051E-07  1024   0.678E-04    0.152E-03
RMM:  32    -0.128236242594E+04   -0.60667E-05   -0.20781E-07  1055   0.651E-04    0.186E-03
RMM:  33    -0.128236242803E+04   -0.20963E-05   -0.15129E-07   981   0.642E-04    0.146E-03
RMM:  34    -0.128236243168E+04   -0.36504E-05   -0.16728E-07   992   0.525E-04    0.929E-04
RMM:  35    -0.128236243546E+04   -0.37800E-05   -0.17781E-07  1036   0.570E-04    0.600E-04
RMM:  36    -0.128236243860E+04   -0.31327E-05   -0.20461E-07  1063   0.548E-04    0.475E-04
RMM:  37    -0.128236244047E+04   -0.18754E-05   -0.17908E-07   971   0.564E-04    0.350E-04
RMM:  38    -0.128236244140E+04   -0.93000E-06   -0.14571E-07   913   0.485E-04
  21 F= -.12913388E+04 E0= -.12913289E+04  d E =-.329477E-01  mag=    16.1459
       N       E                     dE             d eps       ncg     rms          rms(c)
DAV:   1    -0.128235168199E+04    0.10758E-01   -0.10178E+01  2160   0.703E+00    0.811E-01
RMM:   2    -0.128237560995E+04   -0.23928E-01   -0.24172E-01  2603   0.966E-01    0.851E-01
RMM:   3    -0.128239012379E+04   -0.14514E-01   -0.32944E-02  2497   0.419E-01    0.182E+00
RMM:   4    -0.128237688410E+04    0.13240E-01   -0.11675E-02  2717   0.223E-01    0.635E-01
RMM:   5    -0.128237697299E+04   -0.88891E-04   -0.28330E-03  2550   0.103E-01    0.492E-01
RMM:   6    -0.128237702520E+04   -0.52215E-04   -0.12682E-03  2552   0.683E-02    0.382E-01
RMM:   7    -0.128237716632E+04   -0.14112E-03   -0.12312E-03  2489   0.712E-02    0.372E-01
RMM:   8    -0.128237717571E+04   -0.93824E-05   -0.77302E-04  2487   0.568E-02    0.282E-01
RMM:   9    -0.128237727542E+04   -0.99714E-04   -0.76173E-04  2416   0.564E-02    0.264E-01
RMM:  10    -0.128237718794E+04    0.87476E-04   -0.31005E-04  2408   0.379E-02    0.153E-01
RMM:  11    -0.128237716105E+04    0.26890E-04   -0.11785E-04  2192   0.236E-02    0.744E-02
RMM:  12    -0.128237717482E+04   -0.13768E-04   -0.38062E-05  1946   0.125E-02    0.652E-02
RMM:  13    -0.128237717497E+04   -0.15116E-06   -0.16100E-05  1711   0.837E-03    0.376E-02
[...]
       N       E                     dE             d eps       ncg     rms          rms(c)
DAV:   1    -0.128267422555E+04    0.43843E-04   -0.22900E-02  2232   0.327E-01    0.414E-02
RMM:   2    -0.128267426805E+04   -0.42498E-04   -0.52506E-04  2470   0.459E-02    0.572E-02
RMM:   3    -0.128267429441E+04   -0.26362E-04   -0.76171E-05  2381   0.212E-02    0.103E-01
RMM:   4    -0.128267427392E+04    0.20486E-04   -0.29425E-05  2210   0.119E-02    0.597E-02
RMM:   5    -0.128267427372E+04    0.19699E-06   -0.86613E-06  1636   0.707E-03
 359 F= -.12917868E+04 E0= -.12917758E+04  d E =-.145296E-04  mag=    16.1970
       N       E                     dE             d eps       ncg     rms          rms(c)
DAV:   1    -0.128267426358E+04    0.10342E-04   -0.68023E-03  2196   0.179E-01    0.284E-02
RMM:   2    -0.128267429017E+04   -0.26585E-04   -0.17861E-04  2513   0.281E-02    0.858E-02
RMM:   3    -0.128267426952E+04    0.20650E-04   -0.33390E-05  2213   0.139E-02    0.285E-02
RMM:   4    -0.128267427961E+04   -0.10094E-04   -0.97207E-06  1785   0.668E-03    0.347E-02
RMM:   5    -0.128267427746E+04    0.21463E-05   -0.35769E-06  1467   0.490E-03    0.198E-02
RMM:   6    -0.128267427975E+04   -0.22885E-05   -0.24196E-06  1427   0.370E-03    0.241E-02
RMM:   7    -0.128267428088E+04   -0.11307E-05   -0.23539E-06  1425   0.371E-03    0.199E-02
RMM:   8    -0.128267428243E+04   -0.15463E-05   -0.21081E-06  1394   0.358E-03    0.139E-02
RMM:   9    -0.128267428313E+04   -0.69870E-06   -0.11663E-06  1294   0.266E-03
 360 F= -.12917868E+04 E0= -.12917757E+04  d E =-.298767E-04  mag=    16.1970
       N       E                     dE             d eps       ncg     rms          rms(c)
DAV:   1    -0.128267420060E+04    0.81828E-04   -0.27206E-02  2208   0.356E-01    0.447E-02
RMM:   2    -0.128267424920E+04   -0.48604E-04   -0.62756E-04  2468   0.501E-02    0.546E-02
RMM:   3    -0.128267429478E+04   -0.45580E-04   -0.91154E-05  2407   0.228E-02    0.135E-01
RMM:   4    -0.128267425067E+04    0.44114E-04   -0.39514E-05  2298   0.134E-02    0.582E-02
RMM:   5    -0.128267425886E+04   -0.81896E-05   -0.12169E-05  1703   0.832E-03    0.215E-02
RMM:   6    -0.128267426534E+04   -0.64771E-05   -0.47286E-06  1550   0.497E-03    0.198E-02
RMM:   7    -0.128267426643E+04   -0.10964E-05   -0.23285E-06  1425   0.390E-03    0.144E-02
RMM:   8    -0.128267426924E+04   -0.28024E-05   -0.29041E-06  1445   0.388E-03    0.242E-02
RMM:   9    -0.128267427064E+04   -0.14041E-05   -0.24372E-06  1370   0.358E-03    0.177E-02
RMM:  10    -0.128267427075E+04   -0.10613E-06   -0.12507E-06  1317   0.286E-03
 361 F= -.12917868E+04 E0= -.12917757E+04  d E =-.293814E-04  mag=    16.1970
       N       E                     dE             d eps       ncg     rms          rms(c)
DAV:   1    -0.128267423350E+04    0.37138E-04   -0.18289E-02  2244   0.292E-01    0.354E-02
RMM:   2    -0.128267426589E+04   -0.32392E-04   -0.41160E-04  2465   0.406E-02    0.511E-02
RMM:   3    -0.128267428739E+04   -0.21499E-04   -0.58750E-05  2368   0.184E-02    0.963E-02
RMM:   4    -0.128267427042E+04    0.16972E-04   -0.24974E-05  2152   0.106E-02    0.551E-02
RMM:   5    -0.128267427123E+04   -0.81105E-06   -0.84686E-06  1611   0.712E-03
 362 F= -.12917868E+04 E0= -.12917758E+04  d E =-.946155E-05  mag=    16.1971
       N       E                     dE             d eps       ncg     rms          rms(c)
DAV:   1    -0.128267423992E+04    0.30505E-04   -0.15290E-02  2184   0.267E-01    0.354E-02
RMM:   2    -0.128267427133E+04   -0.31414E-04   -0.35141E-04  2456   0.381E-02    0.731E-02
RMM:   3    -0.128267426841E+04    0.29215E-05   -0.53573E-05  2374   0.176E-02    0.615E-02
RMM:   4    -0.128267427461E+04   -0.62047E-05   -0.21540E-05  2061   0.987E-03    0.574E-02
RMM:   5    -0.128267426890E+04    0.57160E-05   -0.74751E-06  1581   0.679E-03    0.295E-02
RMM:   6    -0.128267427250E+04   -0.36040E-05   -0.40154E-06  1490   0.465E-03    0.163E-02
RMM:   7    -0.128267427720E+04   -0.47038E-05   -0.27928E-06  1466   0.386E-03    0.169E-02
RMM:   8    -0.128267427875E+04   -0.15452E-05   -0.29005E-06  1434   0.416E-03    0.181E-02
RMM:   9    -0.128267428064E+04   -0.18856E-05   -0.17856E-06  1371   0.321E-03    0.139E-02
RMM:  10    -0.128267428128E+04   -0.64619E-06   -0.88981E-07  1278   0.248E-03
 363 F= -.12917868E+04 E0= -.12917758E+04  d E =-.277154E-04  mag=    16.1974
       N       E                     dE             d eps       ncg     rms          rms(c)
DAV:   1    -0.128267411354E+04    0.16709E-03   -0.61138E-02  2184   0.534E-01    0.631E-02
RMM:   2    -0.128267421755E+04   -0.10401E-03   -0.13522E-03  2424   0.731E-02    0.528E-02
RMM:   3    -0.128267430469E+04   -0.87142E-04   -0.17039E-04  2368   0.322E-02    0.166E-01
RMM:   4    -0.128267423177E+04    0.72922E-04   -0.73129E-05  2506   0.174E-02    0.584E-02
RMM:   5    -0.128267424990E+04   -0.18128E-04   -0.18167E-05  1857   0.977E-03    0.315E-02
RMM:   6    -0.128267425794E+04   -0.80459E-05   -0.72137E-06  1656   0.597E-03    0.268E-02
RMM:   7    -0.128267425931E+04   -0.13697E-05   -0.47354E-06  1545   0.536E-03    0.240E-02
RMM:   8    -0.128267426593E+04   -0.66159E-05   -0.64779E-06  1588   0.552E-03    0.347E-02
RMM:   9    -0.128267426554E+04    0.38544E-06   -0.45041E-06  1526   0.520E-03
 364 F= -.12917868E+04 E0= -.12917758E+04  d E =-.283512E-04  mag=    16.1978
       N       E                     dE             d eps       ncg     rms          rms(c)
DAV:   1    -0.128267421422E+04    0.51708E-04   -0.26692E-02  2292   0.353E-01    0.464E-02
RMM:   2    -0.128267429084E+04   -0.76617E-04   -0.62993E-04  2465   0.515E-02    0.131E-01
RMM:   3    -0.128267426184E+04    0.28996E-04   -0.98419E-05  2425   0.232E-02    0.722E-02
RMM:   4    -0.128267429361E+04   -0.31771E-04   -0.41457E-05  2296   0.135E-02    0.104E-01
RMM:   5    -0.128267426612E+04    0.27491E-04   -0.16031E-05  1737   0.935E-03    0.243E-02
RMM:   6    -0.128267427803E+04   -0.11906E-04   -0.60501E-06  1575   0.569E-03    0.239E-02
RMM:   7    -0.128267428057E+04   -0.25363E-05   -0.34389E-06  1483   0.413E-03    0.211E-02
RMM:   8    -0.128267428216E+04   -0.15981E-05   -0.32433E-06  1449   0.428E-03    0.219E-02
RMM:   9    -0.128267428455E+04   -0.23857E-05   -0.29312E-06  1471   0.391E-03    0.206E-02
RMM:  10    -0.128267428491E+04   -0.36436E-06   -0.16158E-06  1377   0.339E-03
 365 F= -.12917869E+04 E0= -.12917758E+04  d E =-.420006E-04  mag=    16.1980
       N       E                     dE             d eps       ncg     rms          rms(c)
DAV:   1    -0.128267420248E+04    0.82074E-04   -0.28427E-02  2196   0.364E-01    0.449E-02
RMM:   2    -0.128267425604E+04   -0.53569E-04   -0.64383E-04  2454   0.511E-02    0.630E-02
RMM:   3    -0.128267427851E+04   -0.22466E-04   -0.92824E-05  2387   0.235E-02    0.962E-02
RMM:   4    -0.128267425986E+04    0.18646E-04   -0.33508E-05  2310   0.124E-02    0.282E-02
RMM:   5    -0.128267426836E+04   -0.84986E-05   -0.75382E-06  1683   0.669E-03    0.287E-02
RMM:   6    -0.128267427049E+04   -0.21279E-05   -0.37579E-06  1496   0.426E-03    0.310E-02
RMM:   7    -0.128267426987E+04    0.61981E-06   -0.29228E-06  1461   0.424E-03
 366 F= -.12917869E+04 E0= -.12917758E+04  d E =-.502926E-04  mag=    16.1981
       N       E                     dE             d eps       ncg     rms          rms(c)
DAV:   1    -0.128267424013E+04    0.30363E-04   -0.15265E-02  2244   0.265E-01    0.437E-02
RMM:   2    -0.128267432277E+04   -0.82646E-04   -0.41187E-04  2500   0.428E-02    0.157E-01
RMM:   3    -0.128267425942E+04    0.63351E-04   -0.85137E-05  2435   0.211E-02    0.546E-02
RMM:   4    -0.128267428094E+04   -0.21520E-04   -0.29237E-05  2099   0.114E-02    0.683E-02
RMM:   5    -0.128267427150E+04    0.94382E-05   -0.10609E-05  1640   0.778E-03    0.400E-02
RMM:   6    -0.128267427323E+04   -0.17214E-05   -0.48001E-06  1522   0.534E-03    0.146E-02
RMM:   7    -0.128267427839E+04   -0.51594E-05   -0.30910E-06  1459   0.393E-03    0.267E-02
RMM:   8    -0.128267427795E+04    0.43802E-06   -0.26162E-06  1408   0.402E-03
 367 F= -.12917869E+04 E0= -.12917758E+04  d E =-.308102E-04  mag=    16.1980
       N       E                     dE             d eps       ncg     rms          rms(c)
DAV:   1    -0.128267418795E+04    0.90436E-04   -0.27071E-02  2208   0.352E-01    0.502E-02
RMM:   2    -0.128267424802E+04   -0.60068E-04   -0.64325E-04  2535   0.516E-02    0.769E-02
RMM:   3    -0.128267426411E+04   -0.16090E-04   -0.10412E-04  2457   0.240E-02    0.976E-02
RMM:   4    -0.128267425428E+04    0.98232E-05   -0.38283E-05  2282   0.132E-02    0.679E-02
RMM:   5    -0.128267424752E+04    0.67685E-05   -0.11581E-05  1685   0.804E-03    0.288E-02
RMM:   6    -0.128267425300E+04   -0.54878E-05   -0.56482E-06  1559   0.527E-03    0.227E-02
RMM:   7    -0.128267425540E+04   -0.24009E-05   -0.33625E-06  1488   0.418E-03    0.224E-02
RMM:   8    -0.128267425678E+04   -0.13738E-05   -0.33750E-06  1508   0.448E-03    0.141E-02
RMM:   9    -0.128267426085E+04   -0.40711E-05   -0.26841E-06  1428   0.382E-03    0.189E-02
RMM:  10    -0.128267426076E+04    0.89094E-07   -0.14628E-06  1334   0.314E-03
 368 F= -.12917869E+04 E0= -.12917759E+04  d E =-.438795E-04  mag=    16.1980
       N       E                     dE             d eps       ncg     rms          rms(c)
DAV:   1    -0.128267422722E+04    0.33631E-04   -0.13919E-02  2256   0.252E-01    0.335E-02
RMM:   2    -0.128267425577E+04   -0.28553E-04   -0.31099E-04  2540   0.359E-02    0.605E-02
RMM:   3    -0.128267427185E+04   -0.16079E-04   -0.48353E-05  2392   0.161E-02    0.983E-02
RMM:   4    -0.128267425373E+04    0.18118E-04   -0.20665E-05  1980   0.102E-02    0.449E-02
RMM:   5    -0.128267425886E+04   -0.51280E-05   -0.69236E-06  1589   0.663E-03    0.161E-02
RMM:   6    -0.128267426232E+04   -0.34559E-05   -0.27758E-06  1447   0.385E-03    0.166E-02
RMM:   7    -0.128267426348E+04   -0.11691E-05   -0.16801E-06  1348   0.337E-03    0.119E-02
RMM:   8    -0.128267426502E+04   -0.15378E-05   -0.16280E-06  1365   0.311E-03    0.111E-02
RMM:   9    -0.128267426686E+04   -0.18408E-05   -0.10961E-06  1288   0.271E-03    0.108E-02
RMM:  10    -0.128267426706E+04   -0.19445E-06   -0.54869E-07  1246   0.193E-03
 369 F= -.12917870E+04 E0= -.12917759E+04  d E =-.230171E-04  mag=    16.1979
       N       E                     dE             d eps       ncg     rms          rms(c)
DAV:   1    -0.128267420827E+04    0.58594E-04   -0.18104E-02  2220   0.287E-01    0.376E-02
RMM:   2    -0.128267424049E+04   -0.32224E-04   -0.39939E-04  2521   0.405E-02    0.561E-02
RMM:   3    -0.128267427057E+04   -0.30072E-04   -0.61247E-05  2409   0.177E-02    0.118E-01
RMM:   4    -0.128267423871E+04    0.31851E-04   -0.26890E-05  2121   0.115E-02    0.482E-02
RMM:   5    -0.128267424613E+04   -0.74168E-05   -0.80666E-06  1592   0.686E-03    0.154E-02
RMM:   6    -0.128267425226E+04   -0.61307E-05   -0.32641E-06  1511   0.426E-03    0.170E-02
RMM:   7    -0.128267425331E+04   -0.10499E-05   -0.20632E-06  1395   0.372E-03    0.155E-02
RMM:   8    -0.128267425466E+04   -0.13482E-05   -0.19872E-06  1381   0.332E-03    0.174E-02
RMM:   9    -0.128267425610E+04   -0.14378E-05   -0.16529E-06  1350   0.315E-03    0.153E-02
RMM:  10    -0.128267425600E+04    0.10138E-06   -0.85606E-07  1259   0.248E-03
 370 F= -.12917870E+04 E0= -.12917759E+04  d E =-.310470E-04  mag=    16.1979
       N       E                     dE             d eps       ncg     rms          rms(c)
DAV:   1    -0.128267426243E+04   -0.63333E-05   -0.40400E-03  2340   0.137E-01    0.193E-02
RMM:   2    -0.128267427415E+04   -0.11723E-04   -0.98827E-05  2598   0.202E-02    0.552E-02
RMM:   3    -0.128267426887E+04    0.52856E-05   -0.14104E-05  1893   0.875E-03    0.383E-02
RMM:   4    -0.128267427323E+04   -0.43638E-05   -0.66321E-06  1590   0.611E-03    0.359E-02
RMM:   5    -0.128267427035E+04    0.28782E-05   -0.28538E-06  1408   0.449E-03    0.919E-03
RMM:   6    -0.128267427278E+04   -0.24275E-05   -0.11791E-06  1296   0.277E-03    0.849E-03
RMM:   7    -0.128267427381E+04   -0.10320E-05   -0.84528E-07  1261   0.230E-03    0.112E-02
RMM:   8    -0.128267427388E+04   -0.71035E-07   -0.64495E-07  1249   0.203E-03
 371 F= -.12917870E+04 E0= -.12917759E+04  d E =-.202472E-04  mag=    16.1980
       N       E                     dE             d eps       ncg     rms          rms(c)
DAV:   1    -0.128267426716E+04    0.66554E-05   -0.42824E-03  2244   0.141E-01    0.196E-02
RMM:   2    -0.128267427563E+04   -0.84761E-05   -0.10367E-04  2506   0.208E-02    0.332E-02
RMM:   3    -0.128267427735E+04   -0.17143E-05   -0.15620E-05  2012   0.966E-03    0.370E-02
RMM:   4    -0.128267427576E+04    0.15855E-05   -0.53137E-06  1579   0.556E-03    0.188E-02
RMM:   5    -0.128267427673E+04   -0.96242E-06   -0.18007E-06  1343   0.376E-03
 372 F= -.12917870E+04 E0= -.12917759E+04  d E =-.255138E-04  mag=    16.1980
       N       E                     dE             d eps       ncg     rms          rms(c)
DAV:   1    -0.128267428283E+04   -0.70631E-05   -0.38619E-03  2232   0.133E-01    0.215E-02
RMM:   2    -0.128267429540E+04   -0.12574E-04   -0.99234E-05  2577   0.205E-02    0.605E-02
RMM:   3    -0.128267428775E+04    0.76531E-05   -0.16901E-05  1974   0.953E-03    0.425E-02
RMM:   4    -0.128267429259E+04   -0.48400E-05   -0.85354E-06  1654   0.672E-03    0.403E-02
RMM:   5    -0.128267428937E+04    0.32186E-05   -0.35594E-06  1473   0.497E-03    0.123E-02
RMM:   6    -0.128267429164E+04   -0.22685E-05   -0.15107E-06  1337   0.312E-03    0.113E-02
RMM:   7    -0.128267429261E+04   -0.97791E-06   -0.12006E-06  1284   0.276E-03
 373 F= -.12917870E+04 E0= -.12917759E+04  d E =-.135273E-04  mag=    16.1981
       N       E                     dE             d eps       ncg     rms          rms(c)
DAV:   1    -0.128267428823E+04    0.34041E-05   -0.38054E-03  2340   0.132E-01    0.213E-02
RMM:   2    -0.128267430788E+04   -0.19644E-04   -0.10242E-04  2593   0.210E-02    0.809E-02
RMM:   3    -0.128267429003E+04    0.17848E-04   -0.18383E-05  1980   0.990E-03    0.312E-02
RMM:   4    -0.128267429969E+04   -0.96581E-05   -0.81287E-06  1633   0.651E-03    0.459E-02
RMM:   5    -0.128267429374E+04    0.59471E-05   -0.34411E-06  1466   0.494E-03    0.107E-02
RMM:   6    -0.128267429674E+04   -0.30001E-05   -0.12730E-06  1300   0.297E-03    0.105E-02
RMM:   7    -0.128267429774E+04   -0.10019E-05   -0.95204E-07  1266   0.239E-03    0.127E-02
RMM:   8    -0.128267429783E+04   -0.88046E-07   -0.87571E-07  1277   0.233E-03
 374 F= -.12917870E+04 E0= -.12917759E+04  d E =-.163836E-04  mag=    16.1983
       N       E                     dE             d eps       ncg     rms          rms(c)
DAV:   1    -0.128267430134E+04   -0.35994E-05   -0.45236E-03  2256   0.142E-01    0.201E-02
RMM:   2    -0.128267431088E+04   -0.95365E-05   -0.10286E-04  2544   0.208E-02    0.413E-02
RMM:   3    -0.128267431026E+04    0.61328E-06   -0.16129E-05  1981   0.973E-03    0.344E-02
RMM:   4    -0.128267431237E+04   -0.21014E-05   -0.56740E-06  1587   0.566E-03    0.365E-02
RMM:   5    -0.128267430942E+04    0.29486E-05   -0.26212E-06  1421   0.431E-03    0.116E-02
RMM:   6    -0.128267431147E+04   -0.20546E-05   -0.11907E-06  1307   0.283E-03    0.924E-03
RMM:   7    -0.128267431237E+04   -0.89996E-06   -0.79245E-07  1256   0.227E-03
 375 F= -.12917870E+04 E0= -.12917759E+04  d E =-.108200E-04  mag=    16.1983
       N       E                     dE             d eps       ncg     rms          rms(c)
DAV:   1    -0.128267431181E+04   -0.34284E-06   -0.22529E-03  2220   0.101E-01    0.144E-02
RMM:   2    -0.128267431863E+04   -0.68177E-05   -0.52726E-05  2571   0.149E-02    0.420E-02
RMM:   3    -0.128267431461E+04    0.40214E-05   -0.79009E-06  1674   0.664E-03    0.206E-02
RMM:   4    -0.128267431782E+04   -0.32081E-05   -0.30827E-06  1468   0.440E-03    0.280E-02
RMM:   5    -0.128267431537E+04    0.24471E-05   -0.14577E-06  1323   0.332E-03    0.861E-03
RMM:   6    -0.128267431707E+04   -0.17003E-05   -0.70979E-07  1250   0.225E-03    0.752E-03
RMM:   7    -0.128267431789E+04   -0.81300E-06   -0.57983E-07  1239   0.194E-03
 376 F= -.12917870E+04 E0= -.12917759E+04  d E =-.137025E-04  mag=    16.1984
       N       E                     dE             d eps       ncg     rms          rms(c)
DAV:   1    -0.128267432371E+04   -0.66416E-05   -0.27332E-03  2280   0.112E-01    0.154E-02
RMM:   2    -0.128267432965E+04   -0.59336E-05   -0.66813E-05  2636   0.165E-02    0.307E-02
RMM:   3    -0.128267432941E+04    0.23626E-06   -0.86596E-06  1709   0.705E-03    0.321E-02
RMM:   4    -0.128267433012E+04   -0.70964E-06   -0.38515E-06  1457   0.484E-03    0.296E-02
RMM:   5    -0.128267432850E+04    0.16168E-05   -0.17604E-06  1347   0.359E-03    0.742E-03
RMM:   6    -0.128267433045E+04   -0.19480E-05   -0.85606E-07  1261   0.239E-03    0.875E-03
RMM:   7    -0.128267433111E+04   -0.65513E-06   -0.68917E-07  1250   0.213E-03
 377 F= -.12917870E+04 E0= -.12917759E+04  d E =-.124249E-04  mag=    16.1985
       N       E                     dE             d eps       ncg     rms          rms(c)
DAV:   1    -0.128267433025E+04    0.20432E-06   -0.13628E-03  2340   0.792E-02    0.120E-02
RMM:   2    -0.128267433622E+04   -0.59771E-05   -0.36927E-05  2576   0.127E-02    0.417E-02
RMM:   3    -0.128267433123E+04    0.49972E-05   -0.57148E-06  1578   0.588E-03    0.137E-02
RMM:   4    -0.128267433423E+04   -0.30053E-05   -0.21740E-06  1374   0.386E-03    0.227E-02
RMM:   5    -0.128267433264E+04    0.15908E-05   -0.10364E-06  1289   0.273E-03    0.814E-03
RMM:   6    -0.128267433380E+04   -0.11574E-05   -0.54049E-07  1246   0.196E-03    0.679E-03
RMM:   7    -0.128267433429E+04   -0.48755E-06   -0.43638E-07  1243   0.161E-03
 378 F= -.12917870E+04 E0= -.12917759E+04  d E =-.150442E-04  mag=    16.1985
       N       E                     dE             d eps       ncg     rms          rms(c)
DAV:   1    -0.128267433905E+04   -0.52461E-05   -0.31338E-03  2256   0.120E-01    0.167E-02
RMM:   2    -0.128267434563E+04   -0.65806E-05   -0.76023E-05  2646   0.175E-02    0.305E-02
RMM:   3    -0.128267434605E+04   -0.42201E-06   -0.10395E-05  1780   0.764E-03    0.324E-02
RMM:   4    -0.128267434519E+04    0.85662E-06   -0.33313E-06  1441   0.479E-03    0.131E-02
RMM:   5    -0.128267434610E+04   -0.90554E-06   -0.10759E-06  1267   0.284E-03
 379 F= -.12917870E+04 E0= -.12917759E+04  d E =-.898578E-05  mag=    16.1985
       N       E                     dE             d eps       ncg     rms          rms(c)
DAV:   1    -0.128267434802E+04   -0.28313E-05   -0.67244E-04  2328   0.558E-02    0.131E-02
RMM:   2    -0.128267436306E+04   -0.15036E-04   -0.28378E-05  2275   0.121E-02    0.772E-02
RMM:   3    -0.128267434153E+04    0.21525E-04   -0.90892E-06  1663   0.755E-03    0.222E-02
RMM:   4    -0.128267434877E+04   -0.72303E-05   -0.31483E-06  1465   0.461E-03    0.977E-03
RMM:   5    -0.128267434996E+04   -0.11969E-05   -0.88283E-07  1270   0.252E-03    0.108E-02
RMM:   6    -0.128267434980E+04    0.16391E-06   -0.53436E-07  1241   0.204E-03
 380 F= -.12917871E+04 E0= -.12917760E+04  d E =-.113818E-04  mag=    16.1985
       N       E                     dE             d eps       ncg     rms          rms(c)
DAV:   1    -0.128267435854E+04   -0.85808E-05   -0.25077E-03  2208   0.108E-01    0.162E-02
RMM:   2    -0.128267436687E+04   -0.83303E-05   -0.67359E-05  2593   0.168E-02    0.407E-02
RMM:   3    -0.128267436276E+04    0.41123E-05   -0.10125E-05  1748   0.764E-03    0.261E-02
RMM:   4    -0.128267436468E+04   -0.19144E-05   -0.41522E-06  1511   0.482E-03    0.277E-02
RMM:   5    -0.128267436300E+04    0.16788E-05   -0.19347E-06  1371   0.380E-03    0.144E-02
RMM:   6    -0.128267436381E+04   -0.81763E-06   -0.91053E-07  1283   0.251E-03
 381 F= -.12917871E+04 E0= -.12917760E+04  d E =-.863997E-05  mag=    16.1985
