Co–organic framework                  
           1
    25.843508   -0.157450   -0.154869
    12.783872   22.443651   -0.152891
    -0.040905   -0.023032    6.754492
   O    C    H    Co   Li
  60  75  18  18   4
Direct configuration=     1
   0.06052463  0.24800057  0.29688917
   0.03565290  0.29159098  0.93130434
   0.10565300  0.25726469  0.70127590
   0.39843370  0.59376079  0.64614507
   0.69911318  0.06283360  0.35155649
   0.69563488  0.02498449  0.94916928
   0.64070700  0.09500760  0.73249417
   0.01848496  0.38855982  0.63327901
   0.25748601  0.69116396  0.31174877
   0.30218319  0.67075748  0.94954388
   0.26522964  0.63793410  0.71118580
   0.60108254  0.01879226  0.66617797
   0.30715065  0.04610600  0.37458851
   0.23609065  0.08070735  0.60049981
   0.64044583  0.38193309  0.71898119
   0.57080350  0.42687114  0.94586747
   0.28232224  0.08912575  0.00400982
   0.63286030  0.31530473  0.36568496
   0.64084135  0.25691334  0.61699214
   0.00515825  0.62497138  0.70024127
   0.03571679  0.55495017  0.92982794
   0.57590311  0.28811880  0.01639827
   0.04794133  0.65418671  0.37070328
   0.08449744  0.68931571  0.60192659
   0.37806125  0.00540855  0.70819412
   0.41778943  0.03590080  0.94425655
   0.09103804  0.63583871  0.00077635
   0.71097543  0.95483497  0.61716366
   0.78478799  0.92868692  0.40501632
   0.37396363  0.63852802  0.28467973
   0.44231958  0.60141714  0.04886603
   0.74031894  0.91376253  0.99936012
   0.33432508  0.71044327  0.61917544
   0.30584906  0.77809808  0.38090484
   0.99796949  0.36435023  0.26851848
   0.96857655  0.43277333  0.03323922
   0.35639470  0.73465709  0.98116704
   0.96461966  0.32464851  0.59700215
   0.92573878  0.29505208  0.35410321
   0.63993151  0.00821126  0.28441000
   0.60514882  0.96894074  0.06330035
   0.91904324  0.34584490  0.95742540
   0.95131179  0.74188393  0.67083375
   0.97578624  0.69569279  0.03519164
   0.90742538  0.73549332  0.27027237
   0.61304643  0.42323228  0.33611016
   0.31778556  0.94853015  0.67124515
   0.33711909  0.97376104  0.04001558
   0.36742370  0.90446125  0.27223405
   0.98495986  0.60099859  0.33000719
   0.74730356  0.29902950  0.63228537
   0.70724924  0.31287817  0.04082332
   0.74478489  0.35474359  0.23842875
   0.42218103  0.98465037  0.34219495
   0.70782804  0.43806612  0.56244101
   0.63945705  0.53494684  0.57313958
   0.69276712  0.49508872  0.29078220
   0.78009578  0.14285354  0.55421184
   0.74571019  0.20083379  0.82564159
   0.74383427  0.11334675  0.79967721
   0.11384692  0.21004335  0.22067840
   0.15619805  0.16686528  0.34550209
   0.08893934  0.25550774  0.87568717
   0.13002303  0.21154743  0.02011050
   0.45071970  0.55407480  0.56730187
   0.49282550  0.51029404  0.69044802
   0.66570120  0.11690056  0.26181628
   0.65312755  0.16695432  0.37815937
   0.66158954  0.07986240  0.90688633
   0.64650381  0.12621955  0.06016311
   0.01003418  0.43974127  0.55499076
   0.01685911  0.47981168  0.67862563
   0.21787914  0.67742590  0.23131651
   0.17346397  0.67965821  0.35316526
   0.26410816  0.65578734  0.88768546
   0.21862838  0.66037628  0.02888200
   0.55770387  0.01134952  0.58092014
   0.51114179  0.01795409  0.70073710
   0.25363611  0.08227535  0.42712432
   0.21305805  0.12615827  0.28148970
   0.58861837  0.42296097  0.76741533
   0.54814711  0.46685798  0.62194758
   0.22929261  0.12744811  0.08066582
   0.18689478  0.17087170  0.95597221
   0.63203927  0.26969076  0.43389490
   0.62693337  0.22471064  0.30395054
   0.01731023  0.57278117  0.75543891
   0.00852013  0.53418080  0.61102785
   0.60522466  0.23199239  0.10867259
   0.61382068  0.18447233  0.99232985
   0.08568582  0.67029143  0.42698370
   0.13073885  0.66555203  0.28424412
   0.41817625  0.01759518  0.76875800
   0.46536815  0.00895149  0.62860051
   0.13124478  0.64877251  0.08151830
   0.17586648  0.64633682  0.95976684
   0.76559876  0.92222916  0.57121159
   0.80602522  0.87568684  0.71056763
   0.42593222  0.60017044  0.22410117
   0.46592626  0.55425032  0.36505268
   0.79126904  0.87402595  0.91342712
   0.83254048  0.82778425  0.03075626
   0.32296855  0.76178380  0.55730656
   0.33078420  0.80153815  0.69877801
   0.98615407  0.41614303  0.20909937
   0.99438226  0.45548848  0.35210485
   0.34650210  0.78618071  0.90167916
   0.35186650  0.82733732  0.02390126
   0.92559151  0.31156652  0.53211382
   0.87945646  0.31690473  0.67115736
   0.60272750  0.98987084  0.23556454
   0.55723081  0.99609100  0.37746069
   0.87908921  0.33323989  0.87383191
   0.83419858  0.33542954  0.99244263
   0.90104120  0.78402959  0.75400000
   0.86036823  0.83136774  0.63741344
   0.92469907  0.73585499  0.09542148
   0.88625710  0.78325134  0.95679665
   0.56236893  0.46552322  0.41755110
   0.52089041  0.51052784  0.29599313
   0.32686672  0.89721320  0.75090219
   0.32126453  0.85613697  0.62875445
   0.34967841  0.92153665  0.09684016
   0.34218503  0.88201498  0.95405931
   0.99290121  0.55010900  0.40809917
   0.98594414  0.50991816  0.28445795
   0.78909427  0.30870075  0.71864912
   0.83565299  0.30441780  0.60118937
   0.74483231  0.33032976  0.07095770
   0.78946541  0.32409245  0.92301539
   0.46498313  0.99308664  0.42504004
   0.51153967  0.98673700  0.30543780
   0.67728305  0.49329574  0.46713493
   0.75588217  0.15175227  0.73131079
   0.61369023  0.30803566  0.98010217
   0.14431985  0.16545521  0.49882064
   0.48177634  0.51055005  0.84569467
   0.66662794  0.16067222  0.53360699
   0.02880658  0.46802533  0.83338122
   0.17261487  0.69252792  0.50784053
   0.51104579  0.03005942  0.85590473
   0.19876986  0.17223972  0.80261257
   0.59890325  0.19236125  0.83861341
   0.17678448  0.63347210  0.80503374
   0.82161233  0.82618957  0.18514166
   0.36390268  0.81615385  0.17893415
   0.83696053  0.34375995  0.14979407
   0.87127443  0.83283395  0.48283270
   0.53181676  0.51105369  0.14123763
   0.30931916  0.86720116  0.47358885
   0.97405506  0.52168198  0.12963790
   0.83696160  0.29165939  0.44583556
   0.51145950  0.97496740  0.14996664
   0.31895685  0.64651807  0.51417908
   0.04414534  0.30927035  0.49982460
   0.64798490  0.04224244  0.51961385
   0.02972593  0.68370266  0.80001173
   0.36107107  0.03288231  0.13970281
   0.29627345  0.02716686  0.80286824
   0.61360765  0.36394989  0.13119211
   0.67410191  0.28657543  0.81944794
   0.03383298  0.61389315  0.13171109
   0.66383005  0.96748645  0.86995885
   0.98128098  0.30108749  0.16067255
   0.38143967  0.65515172  0.84971773
   0.72667701  0.97885107  0.19913032
   0.97373649  0.37180641  0.83235955
   0.31154956  0.71729110  0.18169902
   0.68704299  0.37223693  0.47212768
   0.96505179  0.67949645  0.46728531
   0.36474209  0.96337893  0.47177933
   0.75618100  0.41858671  0.32350989
   0.66469181  0.48488344  0.79129978
   0.75764165  0.07983535  0.53561731
   0.77708927  0.21618078  0.58114033
Co–organic framework                  
           1
    25.848771   -0.171384   -0.169135
    12.774609   22.464471   -0.149284
    -0.044600   -0.019836    6.756081
   O    C    H    Co   Li
  60  75  18  18   4
Direct configuration=     2
   0.06057414  0.24790130  0.29707486
   0.03571577  0.29152542  0.93145530
   0.10565027  0.25727449  0.70125242
   0.39782600  0.59435678  0.64860264
   0.69914917  0.06277329  0.35175589
   0.69555702  0.02506745  0.94892315
   0.64071876  0.09496416  0.73201360
   0.01856954  0.38847760  0.63342981
   0.25730937  0.69122483  0.31188687
   0.30218421  0.67073916  0.95085578
   0.26537017  0.63789786  0.71056575
   0.60103508  0.01867918  0.66660257
   0.30731064  0.04601037  0.37380983
   0.23627381  0.08057790  0.60085682
   0.64067257  0.38174912  0.71837774
   0.57080513  0.42687238  0.94561107
   0.28245817  0.08913450  0.00337845
   0.63285004  0.31526250  0.36574044
   0.64079387  0.25688679  0.61698630
   0.00512641  0.62509325  0.70006186
   0.03571462  0.55499795  0.92993101
   0.57578280  0.28798747  0.01675858
   0.04797664  0.65419990  0.37052300
   0.08450498  0.68930686  0.60183173
   0.37807683  0.00544587  0.70766335
   0.41774105  0.03584471  0.94463683
   0.09103911  0.63587269  0.00080551
   0.71070146  0.95505638  0.61723147
   0.78475089  0.92872057  0.40551683
   0.37401160  0.63851588  0.28570960
   0.44172285  0.60185488  0.04623559
   0.74037891  0.91366011  0.99941442
   0.33484295  0.70959707  0.62188862
   0.30574187  0.77785977  0.38068825
   0.99792420  0.36433095  0.26871594
   0.96857942  0.43277574  0.03311920
   0.35656260  0.73371364  0.98430091
   0.96452601  0.32459919  0.59702944
   0.92571384  0.29508902  0.35405347
   0.63995419  0.00824416  0.28406493
   0.60506407  0.96907294  0.06422989
   0.91891919  0.34590786  0.95726189
   0.95134102  0.74188548  0.67078340
   0.97576202  0.69569239  0.03509256
   0.90745701  0.73549025  0.27025561
   0.61313907  0.42324089  0.33616304
   0.31777512  0.94839508  0.67096279
   0.33718036  0.97378047  0.03933581
   0.36738939  0.90456619  0.27227085
   0.98490598  0.60117533  0.32988020
   0.74721609  0.29894320  0.63188466
   0.70732293  0.31283271  0.04074158
   0.74493230  0.35476809  0.23871259
   0.42251494  0.98452660  0.34214278
   0.70774273  0.43809617  0.56237310
   0.63946736  0.53493883  0.57326090
   0.69275541  0.49511708  0.29078366
   0.78009698  0.14283512  0.55405094
   0.74559275  0.20102345  0.82589489
   0.74382471  0.11325665  0.79977933
   0.11392562  0.20998566  0.22076431
   0.15604861  0.16701703  0.34530310
   0.08893852  0.25548510  0.87597539
   0.12996632  0.21156917  0.02024876
   0.45066309  0.55424487  0.56920878
   0.49298327  0.51012570  0.69048774
   0.66569118  0.11692801  0.26192447
   0.65312367  0.16697831  0.37813422
   0.66165744  0.07990758  0.90739515
   0.64646663  0.12621014  0.05998094
   0.01001500  0.43987449  0.55485060
   0.01684482  0.47973045  0.67851942
   0.21814150  0.67731503  0.23148247
   0.17343541  0.67960044  0.35331407
   0.26397189  0.65576743  0.88811633
   0.21868728  0.66037939  0.02856188
   0.55769617  0.01138674  0.58094706
   0.51119289  0.01797003  0.70057596
   0.25347232  0.08243403  0.42655676
   0.21324468  0.12603156  0.28159154
   0.58838753  0.42311899  0.76786094
   0.54807509  0.46697593  0.62239938
   0.22924335  0.12745300  0.08058927
   0.18699709  0.17075506  0.95607760
   0.63206670  0.26971856  0.43395777
   0.62696343  0.22468470  0.30393536
   0.01731213  0.57266857  0.75519917
   0.00846792  0.53428526  0.61085235
   0.60517822  0.23213194  0.10854775
   0.61382865  0.18444292  0.99226966
   0.08566217  0.67031422  0.42715877
   0.13077093  0.66557290  0.28440606
   0.41810509  0.01760000  0.76845774
   0.46532998  0.00893290  0.62873863
   0.13123944  0.64876472  0.08124993
   0.17581847  0.64635708  0.95968781
   0.76588899  0.92207601  0.57087194
   0.80597726  0.87570724  0.71050425
   0.42563267  0.60031121  0.22477764
   0.46588913  0.55441465  0.36374803
   0.79115582  0.87411186  0.91343262
   0.83258860  0.82775849  0.03077201
   0.32319522  0.76205862  0.55862398
   0.33081818  0.80155434  0.69832871
   0.98614296  0.41618692  0.20920497
   0.99443936  0.45539412  0.35231130
   0.34650617  0.78595503  0.90047850
   0.35192817  0.82720893  0.02403541
   0.92565289  0.31155098  0.53226136
   0.87949593  0.31691362  0.67120226
   0.60267739  0.98977488  0.23505293
   0.55720655  0.99607099  0.37747571
   0.87910944  0.33326642  0.87388243
   0.83423206  0.33541838  0.99242456
   0.90108242  0.78400387  0.75388382
   0.86038748  0.83135626  0.63734128
   0.92473157  0.73581180  0.09546221
   0.88626291  0.78325248  0.95686497
   0.56241710  0.46548490  0.41756993
   0.52081193  0.51054959  0.29582323
   0.32684974  0.89743008  0.75053856
   0.32128010  0.85609689  0.62864955
   0.34970754  0.92146810  0.09683263
   0.34217767  0.88207429  0.95434896
   0.99292760  0.54992680  0.40833933
   0.98598135  0.51001257  0.28453914
   0.78925664  0.30871797  0.71871354
   0.83561929  0.30441244  0.60127658
   0.74479579  0.33029728  0.07058165
   0.78945120  0.32405006  0.92289178
   0.46476222  0.99304632  0.42464871
   0.51157761  0.98675166  0.30545343
   0.67733793  0.49330010  0.46677322
   0.75588269  0.15175239  0.73110245
   0.61350601  0.30786821  0.98014899
   0.14431516  0.16545757  0.49882291
   0.48178194  0.51056810  0.84574345
   0.66663820  0.16067675  0.53370189
   0.02881836  0.46801734  0.83342104
   0.17261386  0.69252463  0.50788484
   0.51104661  0.03006467  0.85592199
   0.19877467  0.17224755  0.80259229
   0.59890662  0.19237273  0.83858495
   0.17678153  0.63346830  0.80495103
   0.82161196  0.82618324  0.18520023
   0.36391262  0.81615365  0.17893109
   0.83697304  0.34375065  0.14984134
   0.87128506  0.83282740  0.48277818
   0.53183410  0.51103684  0.14105333
   0.30933114  0.86720037  0.47349085
   0.97404793  0.52168347  0.12958550
   0.83697212  0.29164374  0.44576585
   0.51145928  0.97496599  0.14994344
   0.31880473  0.64594135  0.51273296
   0.04401248  0.30930991  0.49934284
   0.64795942  0.04241014  0.52002691
   0.02968889  0.68369983  0.80010884
   0.36093612  0.03309303  0.14098567
   0.29602366  0.02726668  0.80395939
   0.61371100  0.36397492  0.13074110
   0.67401124  0.28650078  0.82107832
   0.03376318  0.61393502  0.13181978
   0.66401639  0.96745124  0.86992313
   0.98146927  0.30109065  0.16036734
   0.38194334  0.65606445  0.84323332
   0.72667177  0.97870151  0.19802337
   0.97370482  0.37172213  0.83263713
   0.31147187  0.71778732  0.18047873
   0.68672161  0.37256464  0.47302677
   0.96511327  0.67936184  0.46740922
   0.36485623  0.96328485  0.47259042
   0.75637605  0.41864622  0.32308856
   0.66468306  0.48493210  0.79159655
   0.75763786  0.07985538  0.53564863
   0.77727093  0.21606933  0.58071943
Co–organic framework                  
           1
    25.848701   -0.171196   -0.168943
    12.774733   22.464191   -0.149333
    -0.044550   -0.019879    6.756059
   O    C    H    Co   Li
  60  75  18  18   4
Direct configuration=     3
   0.06057347  0.24790264  0.29707236
   0.03571493  0.29152630  0.93145327
   0.10565031  0.25727436  0.70125274
   0.39783415  0.59434878  0.64856963
   0.69914869  0.06277410  0.35175321
   0.69555807  0.02506633  0.94892646
   0.64071860  0.09496474  0.73202005
   0.01856840  0.38847871  0.63342778
   0.25731175  0.69122401  0.31188502
   0.30218420  0.67073941  0.95083815
   0.26536829  0.63789834  0.71057408
   0.60103571  0.01868070  0.66659686
   0.30730849  0.04601165  0.37382029
   0.23627135  0.08057964  0.60085202
   0.64066953  0.38175159  0.71838585
   0.57080511  0.42687237  0.94561451
   0.28245634  0.08913438  0.00338693
   0.63285018  0.31526307  0.36573970
   0.64079450  0.25688714  0.61698638
   0.00512683  0.62509161  0.70006427
   0.03571465  0.55499731  0.92992962
   0.57578442  0.28798923  0.01675374
   0.04797616  0.65419972  0.37052543
   0.08450488  0.68930698  0.60183300
   0.37807663  0.00544537  0.70767049
   0.41774170  0.03584547  0.94463172
   0.09103910  0.63587223  0.00080512
   0.71070514  0.95505341  0.61723057
   0.78475139  0.92872012  0.40551010
   0.37401095  0.63851605  0.28569576
   0.44173088  0.60184899  0.04627097
   0.74037811  0.91366148  0.99941369
   0.33483599  0.70960844  0.62185213
   0.30574331  0.77786298  0.38069117
   0.99792480  0.36433121  0.26871329
   0.96857938  0.43277570  0.03312081
   0.35656035  0.73372632  0.98425877
   0.96452727  0.32459985  0.59702908
   0.92571418  0.29508852  0.35405414
   0.63995389  0.00824372  0.28406956
   0.60506520  0.96907117  0.06421740
   0.91892086  0.34590701  0.95726409
   0.95134063  0.74188545  0.67078407
   0.97576235  0.69569239  0.03509389
   0.90745658  0.73549029  0.27025584
   0.61313783  0.42324078  0.33616233
   0.31777526  0.94839690  0.67096658
   0.33717953  0.97378021  0.03934495
   0.36738985  0.90456478  0.27227035
   0.98490670  0.60117296  0.32988191
   0.74721726  0.29894436  0.63189005
   0.70732194  0.31283332  0.04074268
   0.74493032  0.35476776  0.23870877
   0.42251045  0.98452826  0.34214347
   0.70774387  0.43809577  0.56237402
   0.63946722  0.53493894  0.57325927
   0.69275557  0.49511670  0.29078364
   0.78009696  0.14283536  0.55405310
   0.74559432  0.20102090  0.82589149
   0.74382484  0.11325786  0.79977796
   0.11392457  0.20998644  0.22076315
   0.15605062  0.16701499  0.34530578
   0.08893853  0.25548541  0.87597152
   0.12996708  0.21156888  0.02024690
   0.45066384  0.55424259  0.56918315
   0.49298115  0.51012796  0.69048720
   0.66569131  0.11692764  0.26192301
   0.65312372  0.16697799  0.37813456
   0.66165653  0.07990697  0.90738831
   0.64646713  0.12621027  0.05998339
   0.01001525  0.43987270  0.55485248
   0.01684501  0.47973154  0.67852084
   0.21813798  0.67731652  0.23148024
   0.17343580  0.67960122  0.35331207
   0.26397372  0.65576770  0.88811054
   0.21868649  0.66037934  0.02856618
   0.55769627  0.01138624  0.58094670
   0.51119220  0.01796982  0.70057812
   0.25347452  0.08243190  0.42656439
   0.21324217  0.12603326  0.28159016
   0.58839063  0.42311687  0.76785496
   0.54807606  0.46697435  0.62239331
   0.22924401  0.12745293  0.08059030
   0.18699572  0.17075662  0.95607618
   0.63206633  0.26971819  0.43395693
   0.62696303  0.22468504  0.30393556
   0.01731210  0.57267008  0.75520239
   0.00846862  0.53428386  0.61085471
   0.60517884  0.23213006  0.10854943
   0.61382854  0.18444331  0.99227047
   0.08566249  0.67031391  0.42715642
   0.13077050  0.66557262  0.28440388
   0.41810604  0.01759993  0.76846178
   0.46533049  0.00893315  0.62873678
   0.13123951  0.64876482  0.08125354
   0.17581912  0.64635681  0.95968888
   0.76588510  0.92207806  0.57087650
   0.80597791  0.87570696  0.71050510
   0.42563670  0.60030932  0.22476856
   0.46588963  0.55441244  0.36376557
   0.79115734  0.87411070  0.91343255
   0.83258796  0.82775884  0.03077180
   0.32319217  0.76205493  0.55860626
   0.33081773  0.80155412  0.69833475
   0.98614311  0.41618633  0.20920355
   0.99443859  0.45539539  0.35230853
   0.34650612  0.78595806  0.90049464
   0.35192734  0.82721066  0.02403361
   0.92565206  0.31155118  0.53225937
   0.87949540  0.31691350  0.67120165
   0.60267806  0.98977617  0.23505981
   0.55720687  0.99607126  0.37747551
   0.87910916  0.33326607  0.87388175
   0.83423161  0.33541853  0.99242480
   0.90108187  0.78400421  0.75388538
   0.86038722  0.83135642  0.63734225
   0.92473113  0.73581238  0.09546166
   0.88626284  0.78325247  0.95686405
   0.56241646  0.46548541  0.41756968
   0.52081299  0.51054929  0.29582552
   0.32684997  0.89742716  0.75054345
   0.32127989  0.85609743  0.62865096
   0.34970715  0.92146902  0.09683273
   0.34217776  0.88207350  0.95434507
   0.99292724  0.54992924  0.40833610
   0.98598085  0.51001131  0.28453805
   0.78925446  0.30871774  0.71871267
   0.83561974  0.30441252  0.60127541
   0.74479628  0.33029772  0.07058671
   0.78945139  0.32405063  0.92289344
   0.46476519  0.99304687  0.42465398
   0.51157710  0.98675146  0.30545322
   0.67733720  0.49330004  0.46677808
   0.75588268  0.15175239  0.73110525
   0.61350849  0.30787046  0.98014837
   0.14431522  0.16545753  0.49882288
   0.48178187  0.51056785  0.84574280
   0.66663806  0.16067669  0.53370062
   0.02881820  0.46801745  0.83342051
   0.17261387  0.69252468  0.50788425
   0.51104660  0.03006460  0.85592175
   0.19877461  0.17224745  0.80259256
   0.59890657  0.19237257  0.83858533
   0.17678157  0.63346836  0.80495214
   0.82161196  0.82618332  0.18519944
   0.36391248  0.81615366  0.17893113
   0.83697288  0.34375077  0.14984070
   0.87128491  0.83282749  0.48277891
   0.53183387  0.51103706  0.14105580
   0.30933098  0.86720038  0.47349217
   0.97404803  0.52168345  0.12958621
   0.83697198  0.29164395  0.44576678
   0.51145928  0.97496601  0.14994375
   0.31880678  0.64594909  0.51275240
   0.04401427  0.30930938  0.49934932
   0.64795976  0.04240789  0.52002136
   0.02968938  0.68369987  0.80010754
   0.36093793  0.03309020  0.14096843
   0.29602701  0.02726534  0.80394473
   0.61370961  0.36397458  0.13074716
   0.67401245  0.28650179  0.82105641
   0.03376411  0.61393445  0.13181832
   0.66401389  0.96745171  0.86992360
   0.98146675  0.30109061  0.16037143
   0.38193658  0.65605217  0.84332047
   0.72667184  0.97870352  0.19803825
   0.97370525  0.37172326  0.83263340
   0.31147292  0.71778065  0.18049514
   0.68672592  0.37256025  0.47301470
   0.96511245  0.67936365  0.46740755
   0.36485469  0.96328611  0.47257951
   0.75637343  0.41864541  0.32309422
   0.66468317  0.48493145  0.79159257
   0.75763791  0.07985511  0.53564821
   0.77726849  0.21607082  0.58072508
Co–organic framework                  
           1
    25.846701   -0.165904   -0.163525
    12.778252   22.456283   -0.150703
    -0.043147   -0.021093    6.755456
   O    C    H    Co   Li
  60  75  18  18   4
Direct configuration=     4
   0.06055469  0.24794030  0.29700179
   0.03569107  0.29155117  0.93139588
   0.10565134  0.25727064  0.70126165
   0.39806448  0.59412288  0.64763698
   0.69913503  0.06279699  0.35167744
   0.69558762  0.02503486  0.94902001
   0.64071419  0.09498120  0.73220253
   0.01853631  0.38850990  0.63337043
   0.25737877  0.69120096  0.31183273
   0.30218371  0.67074643  0.95033996
   0.26531499  0.63791203  0.71080942
   0.60105374  0.01872365  0.66643564
   0.30724784  0.04604787  0.37411585
   0.23620183  0.08062874  0.60071627
   0.64058355  0.38182132  0.71861478
   0.57080451  0.42687188  0.94571188
   0.28240479  0.08913099  0.00362659
   0.63285408  0.31527910  0.36571863
   0.64081254  0.25689723  0.61698863
   0.00513890  0.62504536  0.70013245
   0.03571545  0.55497918  0.92989050
   0.57583010  0.28803912  0.01661698
   0.04796277  0.65419469  0.37059386
   0.08450202  0.68931033  0.60186902
   0.37807074  0.00543117  0.70787204
   0.41776005  0.03586678  0.94448734
   0.09103868  0.63585934  0.00079405
   0.71080908  0.95496946  0.61720508
   0.78476542  0.92870739  0.40532007
   0.37399266  0.63852070  0.28530463
   0.44195749  0.60168288  0.04727042
   0.74035536  0.91370034  0.99939300
   0.33463943  0.70992958  0.62082124
   0.30578410  0.77795342  0.38077345
   0.99794199  0.36433855  0.26863834
   0.96857830  0.43277478  0.03316638
   0.35649664  0.73408447  0.98306838
   0.96456284  0.32461859  0.59701878
   0.92572364  0.29507451  0.35407305
   0.63994530  0.00823121  0.28420059
   0.60509726  0.96902107  0.06386451
   0.91896795  0.34588314  0.95732629
   0.95132953  0.74188486  0.67080317
   0.97577155  0.69569254  0.03513154
   0.90744458  0.73549145  0.27026217
   0.61310265  0.42323749  0.33614217
   0.31777929  0.94844814  0.67107379
   0.33715632  0.97377278  0.03960304
   0.36740284  0.90452496  0.27225643
   0.98492711  0.60110589  0.32993021
   0.74725053  0.29897711  0.63204227
   0.70729398  0.31285055  0.04077365
   0.74487433  0.35475844  0.23860087
   0.42238373  0.98457515  0.34216299
   0.70777626  0.43808438  0.56239988
   0.63946330  0.53494198  0.57321319
   0.69276001  0.49510594  0.29078310
   0.78009653  0.14284235  0.55411420
   0.74563883  0.20094897  0.82579543
   0.74382849  0.11329206  0.79973917
   0.11389470  0.21000832  0.22073045
   0.15610732  0.16695743  0.34538149
   0.08893883  0.25549401  0.87586206
   0.12998859  0.21156065  0.02019445
   0.45068513  0.55417816  0.56845909
   0.49292131  0.51019181  0.69047196
   0.66569510  0.11691723  0.26188194
   0.65312519  0.16696888  0.37814412
   0.66163070  0.07988984  0.90719504
   0.64648126  0.12621384  0.06005260
   0.01002251  0.43982214  0.55490575
   0.01685047  0.47976237  0.67856117
   0.21803840  0.67735854  0.23141698
   0.17344664  0.67962316  0.35325557
   0.26402542  0.65577531  0.88794702
   0.21866416  0.66037813  0.02868770
   0.55769918  0.01137212  0.58093649
   0.51117281  0.01796375  0.70063928
   0.25353670  0.08237169  0.42678008
   0.21317135  0.12608131  0.28155132
   0.58847818  0.42305698  0.76768595
   0.54810332  0.46692963  0.62222182
   0.22926272  0.12745108  0.08061941
   0.18695691  0.17080087  0.95603606
   0.63205590  0.26970763  0.43393303
   0.62695162  0.22469488  0.30394130
   0.01731144  0.57271280  0.75529341
   0.00848842  0.53424422  0.61092142
   0.60519644  0.23207711  0.10859690
   0.61382553  0.18445447  0.99229331
   0.08567145  0.67030528  0.42708996
   0.13075830  0.66556470  0.28434236
   0.41813308  0.01759810  0.76857586
   0.46534498  0.00894022  0.62868435
   0.13124156  0.64876776  0.08135546
   0.17583735  0.64634913  0.95971893
   0.76577498  0.92213609  0.57100521
   0.80599612  0.87569923  0.71052921
   0.42575032  0.60025601  0.22451193
   0.46590378  0.55435002  0.36426107
   0.79120030  0.87407813  0.91343057
   0.83256970  0.82776860  0.03076577
   0.32310593  0.76195066  0.55810585
   0.33080486  0.80154794  0.69850534
   0.98614731  0.41616968  0.20916346
   0.99441693  0.45543120  0.35223006
   0.34650474  0.78604364  0.90095054
   0.35190396  0.82725937  0.02398259
   0.92562876  0.31155708  0.53220330
   0.87948041  0.31691012  0.67118457
   0.60269716  0.98981257  0.23525411
   0.55721609  0.99607886  0.37746982
   0.87910147  0.33325600  0.87386255
   0.83421891  0.33542275  0.99243163
   0.90106624  0.78401396  0.75392946
   0.86037992  0.83136076  0.63736963
   0.92471880  0.73582876  0.09544616
   0.88626062  0.78325204  0.95683810
   0.56239818  0.46549995  0.41756248
   0.52084279  0.51054105  0.29589010
   0.32685638  0.89734485  0.75068159
   0.32127400  0.85611263  0.62869077
   0.34969611  0.92149502  0.09683555
   0.34218052  0.88205101  0.95423510
   0.99291726  0.54999840  0.40824484
   0.98596669  0.50997547  0.28450721
   0.78919281  0.30871117  0.71868808
   0.83563253  0.30441456  0.60124232
   0.74481018  0.33031003  0.07072953
   0.78945681  0.32406671  0.92294038
   0.46484910  0.99306220  0.42480275
   0.51156269  0.98674589  0.30544725
   0.67731639  0.49329836  0.46691540
   0.75588250  0.15175233  0.73118437
   0.61357847  0.30793405  0.98013070
   0.14431700  0.16545664  0.49882202
   0.48177973  0.51056101  0.84572427
   0.66663416  0.16067497  0.53366457
   0.02881373  0.46802048  0.83340537
   0.17261425  0.69252593  0.50786742
   0.51104629  0.03006261  0.85591520
   0.19877278  0.17224448  0.80260026
   0.59890529  0.19236821  0.83859614
   0.17678270  0.63346979  0.80498355
   0.82161210  0.82618573  0.18517720
   0.36390871  0.81615373  0.17893229
   0.83696813  0.34375430  0.14982274
   0.87128088  0.83282997  0.48279960
   0.53182730  0.51104344  0.14112578
   0.30932644  0.86720067  0.47352937
   0.97405073  0.52168288  0.12960611
   0.83696799  0.29164988  0.44579325
   0.51145937  0.97496654  0.14995256
   0.31886482  0.64616791  0.51330156
   0.04406474  0.30929437  0.49953238
   0.64796935  0.04234428  0.51986456
   0.02970344  0.68370096  0.80007069
   0.36098899  0.03301034  0.14048142
   0.29612172  0.02722758  0.80353059
   0.61367040  0.36396504  0.13091835
   0.67404677  0.28653022  0.82043734
   0.03379059  0.61391859  0.13177711
   0.66394316  0.96746503  0.86993701
   0.98139529  0.30108935  0.16048719
   0.38174561  0.65570534  0.84578268
   0.72667397  0.97876022  0.19845858
   0.97371727  0.37175527  0.83252800
   0.31150235  0.71759230  0.18095870
   0.68684776  0.37243600  0.47267359
   0.96508914  0.67941472  0.46736042
   0.36481133  0.96332183  0.47227140
   0.75629939  0.41862277  0.32325407
   0.66468646  0.48491300  0.79147988
   0.75763934  0.07984751  0.53563633
   0.77719959  0.21611305  0.58088475
Co–organic framework                  
           1
    25.842083   -0.169416   -0.168162
    12.772936   22.452960   -0.148611
    -0.044358   -0.019780    6.752610
   O    C    H    Co   Li
  60  75  18  18   4
Direct configuration=     5
   0.06056719  0.24789593  0.29703778
   0.03571328  0.29153232  0.93143776
   0.10563199  0.25727644  0.70137611
   0.39797175  0.59416172  0.64873396
   0.69913286  0.06280010  0.35171619
   0.69557393  0.02505635  0.94898602
   0.64073849  0.09496459  0.73229083
   0.01856995  0.38849560  0.63340106
   0.25737516  0.69121544  0.31194176
   0.30213343  0.67071101  0.95078437
   0.26537503  0.63790306  0.71063693
   0.60106958  0.01868875  0.66658985
   0.30720676  0.04607193  0.37397819
   0.23628687  0.08058451  0.60059039
   0.64049475  0.38188692  0.71861033
   0.57080139  0.42686266  0.94571070
   0.28242825  0.08916579  0.00350610
   0.63285436  0.31528199  0.36569411
   0.64080246  0.25689279  0.61704728
   0.00514277  0.62502657  0.70013019
   0.03570621  0.55500056  0.92983003
   0.57574859  0.28801822  0.01672360
   0.04796956  0.65420772  0.37052987
   0.08450633  0.68931389  0.60189906
   0.37803708  0.00544347  0.70767192
   0.41773886  0.03583123  0.94445945
   0.09103545  0.63586822  0.00079986
   0.71088104  0.95494623  0.61709025
   0.78477468  0.92872658  0.40529022
   0.37399692  0.63853169  0.28577386
   0.44153020  0.60197323  0.04616196
   0.74036295  0.91368001  0.99941932
   0.33492342  0.70964303  0.62190815
   0.30579864  0.77774398  0.38122566
   0.99791035  0.36436488  0.26866437
   0.96858545  0.43276955  0.03318136
   0.35660890  0.73370346  0.98401496
   0.96458443  0.32460825  0.59711049
   0.92571655  0.29508947  0.35407809
   0.63993739  0.00824328  0.28412243
   0.60507588  0.96900749  0.06374134
   0.91895545  0.34592050  0.95735164
   0.95131898  0.74190752  0.67081624
   0.97574755  0.69570235  0.03511830
   0.90746661  0.73548325  0.27024017
   0.61301112  0.42334672  0.33627442
   0.31776656  0.94843540  0.67094857
   0.33720706  0.97371074  0.03943242
   0.36739369  0.90455351  0.27230846
   0.98490231  0.60112862  0.32996261
   0.74725955  0.29893417  0.63196040
   0.70729019  0.31282940  0.04074710
   0.74490744  0.35474103  0.23848877
   0.42241341  0.98451043  0.34202116
   0.70774194  0.43812232  0.56234799
   0.63949809  0.53490671  0.57314448
   0.69275892  0.49512383  0.29070967