Co–organic framework                  
           1
    25.809073   -0.263572   -0.208727
    12.672548   22.077971   -0.146372
    -0.055021   -0.012701    6.707655
   O    C    H    Co   Li
  60  75  18  18   4
Direct configuration=     1
   0.06378449  0.23602590  0.29618419
   0.03942352  0.28170629  0.93014816
   0.10933250  0.24768363  0.69932448
   0.39102499  0.58415087  0.65057620
   0.69675451  0.07135652  0.35588300
   0.69354468  0.03389649  0.95321463
   0.63682973  0.10435833  0.73537143
   0.02161866  0.37985797  0.63060665
   0.24943245  0.69517762  0.31477120
   0.28910394  0.68320231  0.92607212
   0.25936811  0.63646952  0.71095548
   0.60153702  0.02339573  0.67133098
   0.31372131  0.03717500  0.38292943
   0.24222810  0.06998194  0.60731730
   0.64971033  0.43326102  0.76184718
   0.57706952  0.43427408  0.94448597
   0.28840810  0.08078963  0.01001241
   0.62021252  0.32989793  0.39126250
   0.63228993  0.26620081  0.63634204
   0.99436356  0.62537194  0.71384015
   0.03208311  0.55117332  0.93365442
   0.56691310  0.30166179  0.03513951
   0.04855543  0.64429312  0.38462349
   0.08155392  0.68634896  0.60637210
   0.38561040  0.99658563  0.71752457
   0.42246936  0.03151732  0.95272225
   0.08955019  0.62929698  0.00255894
   0.71232050  0.96138354  0.62149572
   0.78616349  0.93610360  0.40980708
   0.35922134  0.62285366  0.25644017
   0.43167714  0.59815622  0.04018856
   0.74216423  0.92023643  0.00469416
   0.34929948  0.69434704  0.59650628
   0.31184846  0.76913147  0.38038932
   0.99949569  0.35584745  0.26560828
   0.96918642  0.42532239  0.02810791
   0.36397558  0.72010196  0.98457334
   0.96779656  0.31295559  0.59405405
   0.92660504  0.28610085  0.34711504
   0.64003909  0.01320758  0.28754227
   0.60810986  0.96995451  0.06714112
   0.92266934  0.33603826  0.95233379
   0.95008624  0.74205031  0.67263729
   0.97615426  0.69735295  0.04845258
   0.90505403  0.73581781  0.27438724
   0.61513135  0.43521640  0.34593504
   0.32664049  0.93761878  0.67841629
   0.34580174  0.96250991  0.04908595
   0.37823985  0.89162225  0.28183345
   0.97795428  0.59977054  0.33088715
   0.73405178  0.31659192  0.62228505
   0.70247381  0.32035452  0.04798617
   0.73955157  0.36898368  0.22139595
   0.42958794  0.97643296  0.34906738
   0.72031955  0.45643038  0.49992139
   0.64409556  0.55178083  0.50847185
   0.69733975  0.51417631  0.22268823
   0.77448808  0.15406835  0.54205306
   0.74233857  0.21181371  0.81653191
   0.74318258  0.12164561  0.79718649
   0.11783300  0.19887351  0.22139789
   0.16064089  0.15565556  0.34808823
   0.09284947  0.24560904  0.87469257
   0.13426201  0.20141530  0.02097531
   0.44493413  0.55166941  0.56719179
   0.49194160  0.51451158  0.69442331
   0.66141332  0.12642042  0.26844463
   0.64719061  0.17671763  0.38952989
   0.65819339  0.08934119  0.91089855
   0.64185284  0.13640118  0.06563496
   0.01061869  0.43290690  0.55314723
   0.01588617  0.47424323  0.67855039
   0.21157197  0.67893273  0.23235799
   0.16823027  0.67913264  0.35519577
   0.25631241  0.65969706  0.88264635
   0.21329776  0.66082747  0.02901475
   0.55962986  0.01305298  0.58633343
   0.51387679  0.01796436  0.70702819
   0.25958553  0.07232806  0.43347343
   0.21826196  0.11603686  0.28583728
   0.59565343  0.44592178  0.78638547
   0.54973517  0.47877000  0.62982639
   0.23462234  0.11832599  0.08507292
   0.19179872  0.16171675  0.95845062
   0.62201918  0.28185013  0.45315565
   0.61861834  0.23580502  0.31893516
   0.01125149  0.57039808  0.76074433
   0.00450926  0.53072289  0.61245118
   0.59664224  0.24379684  0.12243550
   0.60713471  0.19575013  0.00063635
   0.08377479  0.66489791  0.43313019
   0.12728300  0.66206193  0.28728887
   0.42382263  0.01201742  0.77690019
   0.47004579  0.00544138  0.63551929
   0.12860751  0.64416224  0.08379115
   0.17249008  0.64337830  0.96147523
   0.76701286  0.92870229  0.57566486
   0.80733801  0.88069636  0.71463336
   0.41456480  0.59266985  0.21163261
   0.45816160  0.55198212  0.36076599
   0.79257639  0.87896364  0.91849479
   0.83294762  0.83118099  0.03586981
   0.33255643  0.74992926  0.55323864
   0.33982855  0.78867071  0.70116353
   0.98671207  0.40872115  0.20563959
   0.99364993  0.44934783  0.34993876
   0.35615827  0.77192680  0.90446748
   0.36282924  0.81280161  0.02889525
   0.92651801  0.30317331  0.52565940
   0.87823430  0.31309949  0.66264097
   0.60479585  0.99189393  0.23983123
   0.56026392  0.99611789  0.38271812
   0.87988938  0.32779854  0.86744220
   0.83364611  0.33380591  0.98737320
   0.90081058  0.78583849  0.75671752
   0.86094814  0.83489477  0.64015467
   0.92371693  0.73705582  0.10168088
   0.88601782  0.78520224  0.96090933
   0.56208889  0.47524603  0.42292064
   0.51597707  0.51368146  0.29530905
   0.33600349  0.88537684  0.75755124
   0.32978101  0.84454107  0.63334055
   0.35980808  0.90900293  0.10556690
   0.35257179  0.86879637  0.96106444
   0.98791263  0.54725772  0.40868683
   0.98253829  0.50568100  0.28325661
   0.78150598  0.31745775  0.70799465
   0.83004592  0.30757831  0.58980619
   0.73939847  0.33984012  0.06466561
   0.78504089  0.32915288  0.91499188
   0.47075736  0.98787941  0.43177039
   0.51650699  0.98328548  0.31126997
   0.68396549  0.51203853  0.40239550
   0.75291496  0.16150203  0.72292056
   0.60758180  0.31831508  0.99746107
   0.14865893  0.15337759  0.50150231
   0.48236383  0.51509345  0.85198150
   0.66136369  0.16945376  0.54545690
   0.02878984  0.46202590  0.83385834
   0.16680753  0.69287186  0.51030260
   0.51291124  0.03136096  0.86242084
   0.20377438  0.16403314  0.80505272
   0.59210071  0.20429928  0.84572629
   0.17397586  0.62963730  0.80633304
   0.82195183  0.82950277  0.19106035
   0.37568180  0.80076998  0.18435755
   0.83825319  0.33980847  0.14685305
   0.87189752  0.83644617  0.48472573
   0.52555863  0.51353224  0.13797294
   0.31734609  0.85642858  0.47759478
   0.96963858  0.51785127  0.12789899
   0.82921548  0.29697889  0.43192763
   0.51725203  0.97024083  0.15556640
   0.31287574  0.64100412  0.51118817
   0.04632370  0.29957582  0.49657344
   0.64667480  0.04913169  0.52337593
   0.02672143  0.68057615  0.80416899
   0.36708928  0.02480306  0.14747450
   0.30401930  0.01704607  0.81073531
   0.61296926  0.37333110  0.14622969
   0.66833345  0.29112244  0.83946105
   0.02980427  0.61127621  0.13632799
   0.66506931  0.97261560  0.87442102
   0.98485388  0.29027769  0.15833710
   0.38090149  0.65031109  0.82946382
   0.72655185  0.98647477  0.20365918
   0.97699038  0.36209212  0.82708778
   0.30796417  0.71254087  0.18245482
   0.69054932  0.39691817  0.48086137
   0.96233256  0.67733422  0.47094533
   0.37331664  0.95350429  0.47954923
   0.75759400  0.43400061  0.24128600
   0.66907677  0.49934476  0.73199803
   0.75557683  0.08734575  0.53176592
   0.76284982  0.23301955  0.55366090
Co–organic framework                  
           1
    25.788376   -0.280160   -0.200649
    12.647949   22.060977   -0.149873
    -0.052896   -0.014917    6.707182
   O    C    H    Co   Li
  60  75  18  18   4
Direct configuration=     2
   0.06361779  0.23627659  0.29596843
   0.03952722  0.28153264  0.93168219
   0.10915065  0.24774239  0.69828149
   0.39096438  0.58439123  0.65125158
   0.69660660  0.07167695  0.35574183
   0.69348483  0.03430682  0.95280043
   0.63682303  0.10443951  0.73512055
   0.02178851  0.37981576  0.63236466
   0.24906474  0.69553971  0.31477962
   0.28917557  0.68330730  0.92633878
   0.25947619  0.63647274  0.71152415
   0.60140280  0.02352741  0.67093410
   0.31359785  0.03726456  0.38305146
   0.24219594  0.06999691  0.60748903
   0.64969866  0.43328785  0.76185878
   0.57710258  0.43418312  0.94456257
   0.28824467  0.08085610  0.01006587
   0.62020352  0.32996896  0.39121676
   0.63228888  0.26623398  0.63638076
   0.99437299  0.62532985  0.71376355
   0.03206593  0.55117476  0.93370969
   0.56697155  0.30177311  0.03492381
   0.04855829  0.64428826  0.38460301
   0.08157962  0.68632942  0.60627981
   0.38561744  0.99660343  0.71757834
   0.42250235  0.03152989  0.95261195
   0.08958090  0.62929672  0.00261396
   0.71232114  0.96148709  0.62143841
   0.78630112  0.93613276  0.40993181
   0.35909010  0.62302129  0.25695860
   0.43162498  0.59817094  0.04025926
   0.74222512  0.92014374  0.00456209
   0.34928625  0.69434193  0.59689799
   0.31192516  0.76890649  0.38009477
   0.99946079  0.35606155  0.26605397
   0.96929331  0.42474197  0.02428043
   0.36403555  0.72004709  0.98460658
   0.96822377  0.31370282  0.59647236
   0.92703873  0.28595495  0.34655656
   0.64005580  0.01320961  0.28766566
   0.60806163  0.96999021  0.06737828
   0.92333818  0.33641221  0.95554179
   0.95029302  0.74181830  0.67231940
   0.97624780  0.69726786  0.04846299
   0.90511878  0.73574611  0.27446751
   0.61504249  0.43530143  0.34571016
   0.32662272  0.93741818  0.67877084
   0.34577155  0.96241715  0.04895793
   0.37822711  0.89153877  0.28168077
   0.97796362  0.59968818  0.33103877
   0.73405184  0.31661679  0.62236569
   0.70243420  0.32035817  0.04792553
   0.73959092  0.36895998  0.22151469
   0.42963425  0.97644440  0.34905128
   0.72023582  0.45651747  0.49965566
   0.64408152  0.55177620  0.50846896
   0.69730421  0.51416939  0.22274584
   0.77446283  0.15415565  0.54215569
   0.74227230  0.21197758  0.81670088
   0.74316820  0.12179119  0.79710418
   0.11781013  0.19895254  0.22189441
   0.16072550  0.15557526  0.34815537
   0.09280598  0.24560403  0.87509089
   0.13431221  0.20146570  0.02065221
   0.44482744  0.55171126  0.56734736
   0.49194421  0.51451124  0.69438366
   0.66150780  0.12629652  0.26873980
   0.64716312  0.17677282  0.38949706
   0.65832217  0.08913107  0.91102923
   0.64185981  0.13639400  0.06552795
   0.01044353  0.43253173  0.55527237
   0.01595546  0.47446136  0.67858043
   0.21187334  0.67897910  0.23247685
   0.16816936  0.67907077  0.35532220
   0.25623703  0.65959393  0.88272470
   0.21331078  0.66081662  0.02873948
   0.55962779  0.01304909  0.58629365
   0.51389754  0.01797232  0.70702072
   0.25968816  0.07226203  0.43345574
   0.21817667  0.11605399  0.28610880
   0.59557707  0.44598365  0.78604781
   0.54976124  0.47877144  0.62997473
   0.23477137  0.11821730  0.08480389
   0.19171294  0.16176116  0.95845599
   0.62202342  0.28172866  0.45302453
   0.61862166  0.23580890  0.31900088
   0.01123552  0.57048124  0.76085317
   0.00450874  0.53062816  0.61274791
   0.59671052  0.24366537  0.12251853
   0.60715411  0.19577045  0.00074946
   0.08374925  0.66490310  0.43323005
   0.12735284  0.66206694  0.28739191
   0.42384868  0.01201044  0.77687697
   0.47004549  0.00544475  0.63545277
   0.12857851  0.64413642  0.08371120
   0.17250772  0.64338054  0.96141452
   0.76707374  0.92860858  0.57561654
   0.80735076  0.88066029  0.71461082
   0.41463619  0.59265887  0.21138915
   0.45814590  0.55196702  0.36066117
   0.79253383  0.87903340  0.91831607
   0.83301205  0.83113223  0.03601704
   0.33255657  0.74992096  0.55363551
   0.33980635  0.78859552  0.70092386
   0.98699237  0.40817459  0.20706866
   0.99336822  0.44944041  0.34853608
   0.35611815  0.77194081  0.90463345
   0.36280643  0.81277744  0.02876405
   0.92591625  0.30352161  0.52748676
   0.87825259  0.31313076  0.66209978
   0.60472005  0.99191580  0.23990388
   0.56028837  0.99612621  0.38272707
   0.88020824  0.32775744  0.86626008
   0.83363387  0.33382881  0.98761030
   0.90066930  0.78596165  0.75690669
   0.86097406  0.83486075  0.64006161
   0.92360101  0.73717264  0.10154284
   0.88605543  0.78515896  0.96098427
   0.56211151  0.47525700  0.42275358
   0.51598278  0.51367430  0.29536706
   0.33598202  0.88548217  0.75739073
   0.32978425  0.84450682  0.63340345
   0.35979672  0.90910499  0.10561955
   0.35257597  0.86872509  0.96101610
   0.98787380  0.54731912  0.40833793
   0.98260717  0.50569998  0.28324934
   0.78157229  0.31743227  0.70772696
   0.82993968  0.30758060  0.58982790
   0.73939108  0.33984650  0.06479937
   0.78507802  0.32916469  0.91495191
   0.47080536  0.98788475  0.43174161
   0.51648127  0.98330433  0.31138174
   0.68398450  0.51202084  0.40240459
   0.75292176  0.16126278  0.72279843
   0.60746534  0.31831523  0.99745100
   0.14867800  0.15337230  0.50154466
   0.48235972  0.51509743  0.85199209
   0.66136560  0.16944311  0.54544863
   0.02875128  0.46203372  0.83386061
   0.16680682  0.69287300  0.51029616
   0.51291925  0.03134248  0.86237311
   0.20377273  0.16402359  0.80502948
   0.59210303  0.20428631  0.84574118
   0.17397180  0.62963534  0.80631412
   0.82195852  0.82950892  0.19107689
   0.37568059  0.80077492  0.18431193
   0.83823740  0.33981657  0.14683496
   0.87189306  0.83644062  0.48471693
   0.52556111  0.51353426  0.13798896
   0.31735328  0.85642941  0.47761055
   0.96967133  0.51785346  0.12789734
   0.82920756  0.29698336  0.43189521
   0.51725305  0.97025049  0.15561215
   0.31286319  0.64092146  0.50823037
   0.04729846  0.29935853  0.49965294
   0.64658775  0.04912192  0.52373098
   0.02665970  0.68057426  0.80438244
   0.36717740  0.02473439  0.14763595
   0.30400449  0.01706947  0.81076607
   0.61294176  0.37346164  0.14735967
   0.66844130  0.29093368  0.83924033
   0.02985674  0.61129756  0.13599996
   0.66509965  0.97254859  0.87500469
   0.98429447  0.28969558  0.15643466
   0.38099603  0.65035029  0.83020989
   0.72645513  0.98615926  0.20337800
   0.97569146  0.36225300  0.81872735
   0.30794275  0.71227872  0.18248651
   0.69061491  0.39681362  0.48075670
   0.96225226  0.67747465  0.47107702
   0.37336685  0.95353165  0.47938362
   0.75756113  0.43401987  0.24138042
   0.66907829  0.49933911  0.73187589
   0.75556138  0.08732733  0.53178857
   0.76285591  0.23301950  0.55358905
Co–organic framework                  
           1
    25.788631   -0.279956   -0.200749
    12.648251   22.061185   -0.149830
    -0.052922   -0.014890    6.707188
   O    C    H    Co   Li
  60  75  18  18   4
Direct configuration=     3
   0.06361983  0.23627351  0.29597108
   0.03952595  0.28153477  0.93166335
   0.10915288  0.24774167  0.69829429
   0.39096512  0.58438827  0.65124328
   0.69660841  0.07167301  0.35574356
   0.69348557  0.03430177  0.95280552
   0.63682311  0.10443851  0.73512363
   0.02178643  0.37981627  0.63234307
   0.24906925  0.69553526  0.31477951
   0.28917468  0.68330601  0.92633550
   0.25947486  0.63647270  0.71151717
   0.60140445  0.02352579  0.67093898
   0.31359937  0.03726346  0.38304996
   0.24219633  0.06999673  0.60748692
   0.64969880  0.43328752  0.76185864
   0.57710217  0.43418423  0.94456163
   0.28824668  0.08085529  0.01006521
   0.62020363  0.32996809  0.39121732
   0.63228889  0.26623358  0.63638028
   0.99437287  0.62533037  0.71376449
   0.03206614  0.55117474  0.93370901
   0.56697083  0.30177174  0.03492646
   0.04855825  0.64428832  0.38460326
   0.08157930  0.68632966  0.60628095
   0.38561735  0.99660321  0.71757768
   0.42250195  0.03152973  0.95261330
   0.08958052  0.62929673  0.00261329
   0.71232113  0.96148582  0.62143911
   0.78629943  0.93613240  0.40993028
   0.35909171  0.62301923  0.25695223
   0.43162562  0.59817076  0.04025839
   0.74222437  0.92014487  0.00456372
   0.34928642  0.69434199  0.59689318
   0.31192422  0.76890925  0.38009839
   0.99946122  0.35605892  0.26604850
   0.96929200  0.42474911  0.02432743
   0.36403482  0.72004776  0.98460617
   0.96821852  0.31369363  0.59644266
   0.92703341  0.28595674  0.34656342
   0.64005560  0.01320958  0.28766414
   0.60806223  0.96998977  0.06737536
   0.92332996  0.33640760  0.95550240
   0.95029048  0.74182115  0.67232331
   0.97624665  0.69726891  0.04846287
   0.90511799  0.73574699  0.27446652
   0.61504358  0.43530039  0.34571292
   0.32662295  0.93742064  0.67876649
   0.34577193  0.96241829  0.04895950
   0.37822727  0.89153980  0.28168265
   0.97796351  0.59968919  0.33103690
   0.73405184  0.31661649  0.62236470
   0.70243468  0.32035812  0.04792628
   0.73959044  0.36896028  0.22151324
   0.42963368  0.97644426  0.34905148
   0.72023685  0.45651640  0.49965893
   0.64408169  0.55177626  0.50846900
   0.69730464  0.51416947  0.22274514
   0.77446314  0.15415458  0.54215443
   0.74227312  0.21197557  0.81669880
   0.74316838  0.12178941  0.79710519
   0.11781041  0.19895157  0.22188831
   0.16072446  0.15557624  0.34815455
   0.09280652  0.24560409  0.87508600
   0.13431160  0.20146508  0.02065618
   0.44482875  0.55171075  0.56734545
   0.49194418  0.51451124  0.69438414
   0.66150665  0.12629804  0.26873618
   0.64716346  0.17677214  0.38949746
   0.65832059  0.08913365  0.91102762
   0.64185972  0.13639409  0.06552927
   0.01044569  0.43253634  0.55524627
   0.01595460  0.47445868  0.67858006
   0.21186964  0.67897852  0.23247539
   0.16817011  0.67907153  0.35532064
   0.25623795  0.65959520  0.88272374
   0.21331062  0.66081675  0.02874286
   0.55962781  0.01304914  0.58629414
   0.51389729  0.01797223  0.70702081
   0.25968690  0.07226284  0.43345596
   0.21817772  0.11605378  0.28610546
   0.59557800  0.44598289  0.78605195
   0.54976092  0.47877142  0.62997291
   0.23476954  0.11821863  0.08480720
   0.19171399  0.16176061  0.95845592
   0.62202337  0.28173016  0.45302614
   0.61862162  0.23580885  0.31900008
   0.01123571  0.57048022  0.76085183
   0.00450875  0.53062933  0.61274426
   0.59670968  0.24366699  0.12251752
   0.60715387  0.19577020  0.00074807
   0.08374957  0.66490303  0.43322883
   0.12735199  0.66206688  0.28739065
   0.42384836  0.01201052  0.77687726
   0.47004549  0.00544471  0.63545358
   0.12857887  0.64413674  0.08371218
   0.17250751  0.64338052  0.96141527
   0.76707299  0.92860973  0.57561713
   0.80735060  0.88066074  0.71461110
   0.41463531  0.59265901  0.21139214
   0.45814609  0.55196721  0.36066246
   0.79253436  0.87903254  0.91831826
   0.83301126  0.83113283  0.03601524
   0.33255657  0.74992106  0.55363063
   0.33980663  0.78859644  0.70092680
   0.98698893  0.40818130  0.20705112
   0.99337168  0.44943927  0.34855330
   0.35611864  0.77194064  0.90463141
   0.36280671  0.81277773  0.02876566
   0.92592364  0.30351733  0.52746431
   0.87825236  0.31313037  0.66210643
   0.60472098  0.99191553  0.23990299
   0.56028807  0.99612611  0.38272696
   0.88020432  0.32775795  0.86627460
   0.83363402  0.33382853  0.98760739
   0.90067104  0.78596013  0.75690436
   0.86097374  0.83486117  0.64006275
   0.92360243  0.73717120  0.10154453
   0.88605497  0.78515949  0.96098335
   0.56211123  0.47525686  0.42275563
   0.51598271  0.51367439  0.29536634
   0.33598229  0.88548088  0.75739270
   0.32978421  0.84450724  0.63340268
   0.35979686  0.90910374  0.10561890
   0.35257592  0.86872597  0.96101669
   0.98787427  0.54731837  0.40834222
   0.98260632  0.50569975  0.28324943
   0.78157147  0.31743258  0.70773025
   0.82994099  0.30758057  0.58982763
   0.73939117  0.33984642  0.06479772
   0.78507756  0.32916454  0.91495240
   0.47080477  0.98788468  0.43174196
   0.51648158  0.98330409  0.31138036
   0.68398427  0.51202106  0.40240448
   0.75292168  0.16126572  0.72279993
   0.60746678  0.31831523  0.99745112
   0.14867776  0.15337236  0.50154414
   0.48235977  0.51509738  0.85199196
   0.66136558  0.16944324  0.54544873
   0.02875176  0.46203363  0.83386058
   0.16680683  0.69287298  0.51029624
   0.51291915  0.03134270  0.86237370
   0.20377275  0.16402371  0.80502977
   0.59210300  0.20428647  0.84574100
   0.17397185  0.62963536  0.80631435
   0.82195844  0.82950884  0.19107669
   0.37568061  0.80077486  0.18431249
   0.83823760  0.33981647  0.14683518
   0.87189312  0.83644069  0.48471703
   0.52556108  0.51353424  0.13798877
   0.31735319  0.85642940  0.47761035
   0.96967093  0.51785343  0.12789736
   0.82920766  0.29698330  0.43189561
   0.51725304  0.97025037  0.15561159
   0.31286334  0.64092248  0.50826669
   0.04728649  0.29936118  0.49961514
   0.64658882  0.04912204  0.52372661
   0.02666046  0.68057428  0.80437981
   0.36717632  0.02473524  0.14763397
   0.30400467  0.01706919  0.81076569
   0.61294209  0.37346003  0.14734579
   0.66843997  0.29093600  0.83924304
   0.02985609  0.61129730  0.13600399
   0.66509928  0.97254942  0.87499752
   0.98430134  0.28970275  0.15645802
   0.38099487  0.65034980  0.83020072
   0.72645632  0.98616314  0.20338145
   0.97570741  0.36225104  0.81883000
   0.30794302  0.71228194  0.18248613
   0.69061411  0.39681491  0.48075799
   0.96225325  0.67747293  0.47107540
   0.37336623  0.95353131  0.47938565
   0.75756153  0.43401963  0.24137926
   0.66907827  0.49933917  0.73187739
   0.75556157  0.08732756  0.53178829
   0.76285583  0.23301950  0.55358994
Co–organic framework                  
           1
    25.794907   -0.274926   -0.203198
    12.655711   22.066339   -0.148768
    -0.053567   -0.014218    6.707331
   O    C    H    Co   Li
  60  75  18  18   4
Direct configuration=     4
   0.06367036  0.23619747  0.29603641
   0.03949458  0.28158740  0.93119819
   0.10920800  0.24772391  0.69861053
   0.39098350  0.58431532  0.65103840
   0.69665322  0.07157581  0.35578627
   0.69350363  0.03417727  0.95293104
   0.63682512  0.10441388  0.73519970
   0.02173498  0.37982899  0.63180998
   0.24918075  0.69542545  0.31477677
   0.28915295  0.68327412  0.92625464
   0.25944209  0.63647168  0.71134474
   0.60144513  0.02348587  0.67105927
   0.31363681  0.03723631  0.38301289
   0.24220609  0.06999218  0.60743482
   0.64970234  0.43327938  0.76185511
   0.57709216  0.43421183  0.94453843
   0.28829625  0.08083515  0.01004893
   0.62020635  0.32994654  0.39123118
   0.63228921  0.26622351  0.63636853
   0.99437002  0.62534314  0.71378773
   0.03207135  0.55117431  0.93369224
   0.56695307  0.30173795  0.03499188
   0.04855739  0.64428980  0.38460947
   0.08157151  0.68633558  0.60630895
   0.38561522  0.99659781  0.71756137
   0.42249193  0.03152592  0.95264676
   0.08957121  0.62929680  0.00259661
   0.71232092  0.96145440  0.62145648
   0.78625767  0.93612352  0.40989250
   0.35913152  0.62296837  0.25679493
   0.43164144  0.59816630  0.04023693
   0.74220591  0.92017300  0.00460381
   0.34929045  0.69434353  0.59677438
   0.31190097  0.76897753  0.38018778
   0.99947179  0.35599394  0.26591328
   0.96925952  0.42492535  0.02548835
   0.36401663  0.72006440  0.98459612
   0.96808888  0.31346668  0.59570927
   0.92690184  0.28600094  0.34673297
   0.64005053  0.01320896  0.28762673
   0.60807686  0.96997894  0.06730342
   0.92312711  0.33629387  0.95452967
   0.95022777  0.74189153  0.67241983
   0.97621829  0.69729471  0.04845976
   0.90509836  0.73576873  0.27444222
   0.61507051  0.43527461  0.34578107
   0.32662838  0.93748151  0.67865899
   0.34578109  0.96244645  0.04899833
   0.37823114  0.89156514  0.28172896
   0.97796069  0.59971418  0.33099094
   0.73405182  0.31660893  0.62234024
   0.70244670  0.32035703  0.04794465
   0.73957851  0.36896746  0.22147724
   0.42961963  0.97644078  0.34905638
   0.72026223  0.45649000  0.49973947
   0.64408595  0.55177767  0.50846987
   0.69731543  0.51417158  0.22272765
   0.77447079  0.15412809  0.54212328
   0.74229320  0.21192585  0.81664751
   0.74317271  0.12174523  0.79713012
   0.11781735  0.19892757  0.22173771
   0.16069881  0.15560059  0.34813423
   0.09281973  0.24560561  0.87496518
   0.13429634  0.20144978  0.02075417
   0.44486112  0.55169807  0.56729823
   0.49194339  0.51451135  0.69439617
   0.66147801  0.12633561  0.26864671
   0.64717178  0.17675540  0.38950740
   0.65828156  0.08919738  0.91098807
   0.64185761  0.13639627  0.06556172
   0.01049898  0.43265018  0.55460177
   0.01593355  0.47439246  0.67857094
   0.21177820  0.67896438  0.23243944
   0.16818860  0.67909032  0.35528229
   0.25626084  0.65962652  0.88269997
   0.21330666  0.66082005  0.02882635
   0.55962844  0.01305032  0.58630621
   0.51389099  0.01796980  0.70702308
   0.25965578  0.07228286  0.43346137
   0.21820360  0.11604860  0.28602308
   0.59560115  0.44596414  0.78615432
   0.54975302  0.47877098  0.62992793
   0.23472433  0.11825159  0.08488886
   0.19174001  0.16174716  0.95845426
   0.62202210  0.28176702  0.45306593
   0.61862061  0.23580767  0.31898014
   0.01124055  0.57045498  0.76081880
   0.00450894  0.53065807  0.61265429
   0.59668899  0.24370687  0.12249238
   0.60714799  0.19576403  0.00071377
   0.08375732  0.66490146  0.43319853
   0.12733080  0.66206534  0.28735942
   0.42384046  0.01201264  0.77688431
   0.47004558  0.00544369  0.63547376
   0.12858766  0.64414458  0.08373642
   0.17250215  0.64337983  0.96143369
   0.76705453  0.92863816  0.57563182
   0.80734674  0.88067168  0.71461794
   0.41461365  0.59266233  0.21146600
   0.45815086  0.55197180  0.36069424
   0.79254725  0.87901139  0.91837243
   0.83299172  0.83114761  0.03597062
   0.33255654  0.74992357  0.55351028
   0.33981336  0.78861927  0.70099949
   0.98690404  0.40834707  0.20661791
   0.99345708  0.44941128  0.34897858
   0.35613081  0.77193639  0.90458106
   0.36281363  0.81278508  0.02880545
   0.92610622  0.30341171  0.52690985
   0.87824679  0.31312090  0.66227056
   0.60474398  0.99190891  0.23988093
   0.56028065  0.99612358  0.38272426
   0.88010754  0.32777038  0.86663323
   0.83363774  0.33382157  0.98753547
   0.90071388  0.78592278  0.75684692
   0.86096588  0.83487149  0.64009099
   0.92363757  0.73713578  0.10158634
   0.88604357  0.78517262  0.96096065
   0.56210436  0.47525353  0.42280630
   0.51598098  0.51367656  0.29534875
   0.33598877  0.88544892  0.75744135
   0.32978323  0.84451763  0.63338361
   0.35980029  0.90907276  0.10560292
   0.35257466  0.86874760  0.96103137
   0.98788603  0.54729975  0.40844800
   0.98258542  0.50569397  0.28325166
   0.78155135  0.31744031  0.70781146
   0.82997322  0.30757990  0.58982101
   0.73939342  0.33984448  0.06475715
   0.78506629  0.32916095  0.91496454
   0.47079021  0.98788305  0.43175070
   0.51648939  0.98329838  0.31134645
   0.68397850  0.51202642  0.40240173
   0.75291965  0.16133833  0.72283701
   0.60750211  0.31831521  0.99745413
   0.14867198  0.15337396  0.50153130
   0.48236102  0.51509617  0.85198874
   0.66136500  0.16944647  0.54545124
   0.02876345  0.46203126  0.83385988
   0.16680704  0.69287264  0.51029819
   0.51291672  0.03134831  0.86238818
   0.20377325  0.16402661  0.80503682
   0.59210230  0.20429041  0.84573649
   0.17397308  0.62963596  0.80632009
   0.82195641  0.82950697  0.19107167
   0.37568097  0.80077337  0.18432633
   0.83824239  0.33981401  0.14684066
   0.87189447  0.83644237  0.48471970
   0.52556033  0.51353362  0.13798391
   0.31735101  0.85642915  0.47760557
   0.96966099  0.51785276  0.12789788
   0.82921006  0.29698195  0.43190544
   0.51725273  0.97024744  0.15559771
   0.31286705  0.64094766  0.50916373
   0.04699093  0.29942682  0.49868158
   0.64661524  0.04912501  0.52361891
   0.02667920  0.68057486  0.80431506
   0.36714960  0.02475605  0.14758505
   0.30400916  0.01706209  0.81075635
   0.61295046  0.37342039  0.14700307
   0.66840728  0.29099326  0.83931005
   0.02984016  0.61129081  0.13610349
   0.66509011  0.97256973  0.87482053
   0.98447108  0.28987959  0.15703488
   0.38096621  0.65033787  0.82997449
   0.72648570  0.98625892  0.20346675
   0.97610112  0.36220276  0.82136503
   0.30794956  0.71236150  0.18247655
   0.69059422  0.39684662  0.48078977
   0.96227759  0.67743032  0.47103541
   0.37335099  0.95352300  0.47943589
   0.75757151  0.43401379  0.24135061
   0.66907781  0.49934089  0.73191443
   0.75556626  0.08733315  0.53178142
   0.76285398  0.23301952  0.55361173
Co–organic framework                  
           1
    25.783174   -0.282966   -0.203032
    12.642949   22.058293   -0.154006
    -0.053532   -0.015811    6.704777
   O    C    H    Co   Li
  60  75  18  18   4
Direct configuration=     5
   0.06361818  0.23629234  0.29586670
   0.03953400  0.28153026  0.93183604
   0.10911383  0.24773399  0.69846428
   0.39096577  0.58438738  0.65121189
   0.69666331  0.07159538  0.35584344
   0.69364516  0.03407159  0.95300034
   0.63683676  0.10442945  0.73524415
   0.02187736  0.37977895  0.63302050
   0.24912722  0.69560285  0.31489566
   0.28912403  0.68327517  0.92630056
   0.25949668  0.63642255  0.71118135
   0.60143098  0.02353255  0.67106988
   0.31369694  0.03720299  0.38295599
   0.24221027  0.06998204  0.60749624
   0.64970040  0.43329175  0.76182901
   0.57711439  0.43415273  0.94452714
   0.28832011  0.08077821  0.00995817
   0.62020261  0.32993247  0.39129145
   0.63227965  0.26623296  0.63631398
   0.99436195  0.62536765  0.71371819
   0.03206240  0.55119063  0.93370146
   0.56694164  0.30173410  0.03496943
   0.04853009  0.64427568  0.38457090
   0.08157395  0.68634345  0.60641351
   0.38560167  0.99659363  0.71753547
   0.42251107  0.03153844  0.95268718
   0.08955210  0.62928660  0.00255883
   0.71234390  0.96147098  0.62146742
   0.78631229  0.93612618  0.40993219
   0.35917502  0.62296660  0.25681364
   0.43164250  0.59817025  0.04014748
   0.74220291  0.92015217  0.00457868
   0.34929390  0.69431080  0.59700120
   0.31194677  0.76888139  0.38026556
   0.99950153  0.35587472  0.26648283
   0.96947495  0.42435516  0.02437572
   0.36404279  0.72003642  0.98469632
   0.96795803  0.31390192  0.59657732
   0.92714935  0.28601409  0.34764883
   0.64006599  0.01321420  0.28767406
   0.60806061  0.96997636  0.06725322
   0.92334693  0.33651807  0.95557840
   0.95019183  0.74191188  0.67246097
   0.97616894  0.69733549  0.04849854
   0.90510153  0.73576467  0.27441964
   0.61506294  0.43528990  0.34565196
   0.32660322  0.93752923  0.67863287
   0.34574854  0.96250804  0.04891881
   0.37823083  0.89154908  0.28173035
   0.97795348  0.59970917  0.33103123
   0.73405739  0.31660462  0.62240953
   0.70241879  0.32036325  0.04793707
   0.73960534  0.36895706  0.22158798
   0.42962486  0.97644393  0.34902977
   0.72025629  0.45650241  0.49968702
   0.64407091  0.55178572  0.50849225
   0.69731319  0.51416689  0.22262589