 146 146   0   0
  0.2166304E+02  0.2413994E-08  0.2383006E-08  0.6826046E-09  0.5000000E-15
  1.000000000000000E-004
  CAR 
 Co–organic framework                  
      7.28800635    -25.69511594  301     -0.68142050      1.00000000
    -25.695  0.0000E+00  0.0000E+00  0.0000E+00  0.0000E+00
    -25.585  0.0000E+00  0.0000E+00  0.0000E+00  0.0000E+00
    -25.475  0.0000E+00  0.0000E+00  0.0000E+00  0.0000E+00
    -25.365  0.0000E+00  0.0000E+00  0.0000E+00  0.0000E+00
    -25.255  0.0000E+00  0.0000E+00  0.0000E+00  0.0000E+00
    -25.145  0.0000E+00  0.0000E+00  0.0000E+00  0.0000E+00
    -25.035  0.0000E+00  0.0000E+00  0.0000E+00  0.0000E+00
    -24.926  0.0000E+00  0.0000E+00  0.0000E+00  0.0000E+00
    -24.816  0.0000E+00  0.0000E+00  0.0000E+00  0.0000E+00
    -24.706  0.0000E+00  0.0000E+00  0.0000E+00  0.0000E+00
    -24.596  0.0000E+00  0.0000E+00  0.0000E+00  0.0000E+00
    -24.486  0.1010E-17  0.0000E+00  0.1110E-18  0.0000E+00
    -24.376  0.1648E-08  0.6490E-14  0.1812E-09  0.7135E-15
    -24.266  0.2361E-03  0.3289E-06  0.2596E-04  0.3616E-07
    -24.156  0.1640E-01  0.2206E-02  0.1829E-02  0.2425E-03
    -24.046  0.1507E-01  0.2240E-01  0.3486E-02  0.2705E-02
    -23.936  0.2120E-01  0.1813E-01  0.5816E-02  0.4699E-02
    -23.826  0.2881E-01  0.2829E-01  0.8984E-02  0.7809E-02
    -23.716  0.3563E-01  0.3002E-01  0.1290E-01  0.1111E-01
    -23.606  0.2789E-01  0.3649E-01  0.1597E-01  0.1512E-01
    -23.496  0.3009E-03  0.7980E-02  0.1600E-01  0.1600E-01
    -23.386  0.2467E-08  0.1019E-04  0.1600E-01  0.1600E-01
    -23.276  0.2020E-17  0.2874E-11  0.1600E-01  0.1600E-01
    -23.166  0.0000E+00  0.0000E+00  0.1600E-01  0.1600E-01
    -23.056  0.0000E+00  0.0000E+00  0.1600E-01  0.1600E-01
    -22.947  0.0000E+00  0.0000E+00  0.1600E-01  0.1600E-01
    -22.837  0.0000E+00  0.0000E+00  0.1600E-01  0.1600E-01
    -22.727  0.0000E+00  0.0000E+00  0.1600E-01  0.1600E-01
    -22.617  0.0000E+00  0.0000E+00  0.1600E-01  0.1600E-01
    -22.507  0.6326E-15  0.1062E-14  0.1600E-01  0.1600E-01
    -22.397  0.8216E-07  0.1119E-06  0.1600E-01  0.1600E-01
    -22.287  0.1091E-02  0.1217E-02  0.1612E-01  0.1613E-01
    -22.177  0.1747E-01  0.9604E-02  0.1804E-01  0.1719E-01
    -22.067  0.4871E-01  0.1406E-01  0.2340E-01  0.1874E-01
    -21.957  0.5281E-01  0.3105E-01  0.2920E-01  0.2215E-01
    -21.847  0.2480E-01  0.5330E-01  0.3193E-01  0.2801E-01
    -21.737  0.1742E-01  0.3477E-01  0.3384E-01  0.3183E-01
    -21.627  0.2567E-01  0.1590E-01  0.3666E-01  0.3358E-01
    -21.517  0.1025E-01  0.3112E-01  0.3779E-01  0.3700E-01
    -21.407  0.2946E-01  0.2923E-01  0.4103E-01  0.4022E-01
    -21.297  0.5627E-01  0.2808E-01  0.4722E-01  0.4330E-01
    -21.187  0.7114E-02  0.4039E-01  0.4800E-01  0.4774E-01
    -21.077  0.5747E-05  0.2332E-02  0.4800E-01  0.4800E-01
    -20.968  0.1035E-11  0.2242E-06  0.4800E-01  0.4800E-01
    -20.858  0.0000E+00  0.3156E-14  0.4800E-01  0.4800E-01
    -20.748  0.0000E+00  0.0000E+00  0.4800E-01  0.4800E-01
    -20.638  0.0000E+00  0.0000E+00  0.4800E-01  0.4800E-01
    -20.528  0.0000E+00  0.0000E+00  0.4800E-01  0.4800E-01
    -20.418  0.0000E+00  0.0000E+00  0.4800E-01  0.4800E-01
    -20.308  0.0000E+00  0.0000E+00  0.4800E-01  0.4800E-01
    -20.198  0.0000E+00  0.0000E+00  0.4800E-01  0.4800E-01
    -20.088  0.0000E+00  0.0000E+00  0.4800E-01  0.4800E-01
    -19.978  0.0000E+00  0.0000E+00  0.4800E-01  0.4800E-01
    -19.868  0.0000E+00  0.0000E+00  0.4800E-01  0.4800E-01
    -19.758  0.0000E+00  0.0000E+00  0.4800E-01  0.4800E-01
    -19.648  0.0000E+00  0.0000E+00  0.4800E-01  0.4800E-01
    -19.538  0.0000E+00  0.0000E+00  0.4800E-01  0.4800E-01
    -19.428  0.0000E+00  0.0000E+00  0.4800E-01  0.4800E-01
    -19.318  0.0000E+00  0.0000E+00  0.4800E-01  0.4800E-01
    -19.208  0.0000E+00  0.0000E+00  0.4800E-01  0.4800E-01
    -19.098  0.0000E+00  0.0000E+00  0.4800E-01  0.4800E-01
    -18.989  0.0000E+00  0.0000E+00  0.4800E-01  0.4800E-01
    -18.879  0.0000E+00  0.0000E+00  0.4800E-01  0.4800E-01
    -18.769  0.0000E+00  0.0000E+00  0.4800E-01  0.4800E-01
    -18.659  0.0000E+00  0.0000E+00  0.4800E-01  0.4800E-01
    -18.549  0.0000E+00  0.0000E+00  0.4800E-01  0.4800E-01
    -18.439  0.0000E+00  0.0000E+00  0.4800E-01  0.4800E-01
    -18.329  0.0000E+00  0.0000E+00  0.4800E-01  0.4800E-01
    -18.219  0.0000E+00  0.0000E+00  0.4800E-01  0.4800E-01
    -18.109  0.0000E+00  0.0000E+00  0.4800E-01  0.4800E-01
    -17.999  0.1984E-14  0.2747E-14  0.4800E-01  0.4800E-01
    -17.889  0.1750E-06  0.1965E-06  0.4800E-01  0.4800E-01
    -17.779  0.2090E-02  0.1583E-02  0.4823E-01  0.4817E-01
    -17.669  0.3259E-01  0.2038E-01  0.5181E-01  0.5041E-01
    -17.559  0.3606E-01  0.4125E-01  0.5578E-01  0.5495E-01
    -17.449  0.2023E-02  0.9546E-02  0.5600E-01  0.5600E-01
    -17.339  0.1255E-06  0.9976E-05  0.5600E-01  0.5600E-01
    -17.229  0.1072E-14  0.2041E-11  0.5600E-01  0.5600E-01
    -17.120  0.0000E+00  0.0000E+00  0.5600E-01  0.5600E-01
    -17.010  0.0000E+00  0.0000E+00  0.5600E-01  0.5600E-01
    -16.900  0.0000E+00  0.0000E+00  0.5600E-01  0.5600E-01
    -16.790  0.0000E+00  0.0000E+00  0.5600E-01  0.5600E-01
    -16.680  0.0000E+00  0.0000E+00  0.5600E-01  0.5600E-01
    -16.570  0.0000E+00  0.0000E+00  0.5600E-01  0.5600E-01
    -16.460  0.0000E+00  0.0000E+00  0.5600E-01  0.5600E-01
    -16.350  0.0000E+00  0.0000E+00  0.5600E-01  0.5600E-01
    -16.240  0.0000E+00  0.0000E+00  0.5600E-01  0.5600E-01
    -16.130  0.5998E-11  0.1605E-11  0.5600E-01  0.5600E-01
    -16.020  0.1663E-04  0.7549E-05  0.5600E-01  0.5600E-01
    -15.910  0.9601E-02  0.6679E-02  0.5706E-01  0.5674E-01
    -15.800  0.3648E-01  0.3030E-01  0.6107E-01  0.6007E-01
    -15.690  0.2633E-01  0.3466E-01  0.6396E-01  0.6388E-01
    -15.580  0.3376E-03  0.1114E-02  0.6400E-01  0.6400E-01
    -15.470  0.1673E-08  0.2333E-07  0.6400E-01  0.6400E-01
    -15.360  0.0000E+00  0.5857E-16  0.6400E-01  0.6400E-01
    -15.250  0.0000E+00  0.0000E+00  0.6400E-01  0.6400E-01
    -15.141  0.0000E+00  0.0000E+00  0.6400E-01  0.6400E-01
    -15.031  0.0000E+00  0.0000E+00  0.6400E-01  0.6400E-01
    -14.921  0.0000E+00  0.0000E+00  0.6400E-01  0.6400E-01
    -14.811  0.0000E+00  0.0000E+00  0.6400E-01  0.6400E-01
    -14.701  0.4345E-11  0.7279E-12  0.6400E-01  0.6400E-01
    -14.591  0.1254E-04  0.4627E-05  0.6400E-01  0.6400E-01
    -14.481  0.7679E-02  0.4180E-02  0.6485E-01  0.6446E-01
    -14.371  0.3623E-01  0.2327E-01  0.6883E-01  0.6702E-01
    -14.261  0.2739E-01  0.3537E-01  0.7184E-01  0.7091E-01
    -14.151  0.1452E-02  0.9929E-02  0.7200E-01  0.7200E-01
    -14.041  0.7845E-07  0.1389E-04  0.7200E-01  0.7200E-01
    -13.931  0.5463E-15  0.3992E-11  0.7200E-01  0.7200E-01
    -13.821  0.0000E+00  0.0000E+00  0.7200E-01  0.7200E-01
    -13.711  0.0000E+00  0.0000E+00  0.7200E-01  0.7200E-01
    -13.601  0.9124E-11  0.4347E-12  0.7200E-01  0.7200E-01
    -13.491  0.1871E-04  0.3725E-05  0.7200E-01  0.7200E-01
    -13.381  0.1015E-01  0.5500E-02  0.7312E-01  0.7261E-01
    -13.271  0.3890E-01  0.3307E-01  0.7739E-01  0.7624E-01
    -13.162  0.2311E-01  0.3127E-01  0.7993E-01  0.7968E-01
    -13.052  0.5918E-03  0.2927E-02  0.8000E-01  0.8000E-01
    -12.942  0.5845E-08  0.3108E-06  0.8000E-01  0.8000E-01
    -12.832  0.6059E-17  0.4840E-14  0.8000E-01  0.8000E-01
    -12.722  0.0000E+00  0.0000E+00  0.8000E-01  0.8000E-01
    -12.612  0.0000E+00  0.0000E+00  0.8000E-01  0.8000E-01
    -12.502  0.0000E+00  0.0000E+00  0.8000E-01  0.8000E-01
    -12.392  0.0000E+00  0.0000E+00  0.8000E-01  0.8000E-01
    -12.282  0.0000E+00  0.0000E+00  0.8000E-01  0.8000E-01
    -12.172  0.0000E+00  0.0000E+00  0.8000E-01  0.8000E-01
    -12.062  0.0000E+00  0.0000E+00  0.8000E-01  0.8000E-01
    -11.952  0.0000E+00  0.0000E+00  0.8000E-01  0.8000E-01
    -11.842  0.2200E-12  0.3026E-13  0.8000E-01  0.8000E-01
    -11.732  0.2578E-05  0.7879E-06  0.8000E-01  0.8000E-01
    -11.622  0.4985E-02  0.2461E-02  0.8055E-01  0.8027E-01
    -11.512  0.3578E-01  0.2148E-01  0.8448E-01  0.8263E-01
    -11.402  0.3383E-01  0.4252E-01  0.8820E-01  0.8731E-01
    -11.292  0.1813E-01  0.2263E-01  0.9019E-01  0.8980E-01
    -11.183  0.2218E-01  0.9349E-02  0.9263E-01  0.9082E-01
    -11.073  0.2834E-01  0.2782E-01  0.9575E-01  0.9388E-01
    -10.963  0.9183E-02  0.2141E-01  0.9676E-01  0.9624E-01
    -10.853  0.2199E-02  0.6889E-02  0.9700E-01  0.9699E-01
    -10.743  0.1558E-02  0.8052E-04  0.9717E-01  0.9700E-01
    -10.633  0.1615E-01  0.7075E-02  0.9895E-01  0.9778E-01
    -10.523  0.1544E-01  0.1738E-01  0.1006E+00  0.9969E-01
    -10.413  0.7313E-02  0.1166E-01  0.1014E+00  0.1010E+00
    -10.303  0.1403E-01  0.4705E-02  0.1030E+00  0.1015E+00
    -10.193  0.8774E-02  0.1626E-01  0.1040E+00  0.1033E+00
    -10.083  0.1249E-02  0.6821E-02  0.1041E+00  0.1040E+00
     -9.973  0.1382E-01  0.8130E-02  0.1056E+00  0.1049E+00
     -9.863  0.1586E-01  0.1083E-01  0.1074E+00  0.1061E+00
     -9.753  0.2097E-01  0.1218E-01  0.1097E+00  0.1075E+00
     -9.643  0.2360E-01  0.2580E-01  0.1123E+00  0.1103E+00
     -9.533  0.1985E-01  0.2299E-01  0.1144E+00  0.1128E+00
     -9.423  0.2311E-01  0.1723E-01  0.1170E+00  0.1147E+00
     -9.313  0.2712E-01  0.2653E-01  0.1200E+00  0.1176E+00
     -9.204  0.1101E-01  0.2212E-01  0.1212E+00  0.1201E+00
     -9.094  0.3003E-01  0.1946E-01  0.1245E+00  0.1222E+00
     -8.984  0.2675E-01  0.2981E-01  0.1274E+00  0.1255E+00
     -8.874  0.3010E-01  0.2788E-01  0.1307E+00  0.1285E+00
     -8.764  0.1846E-01  0.2516E-01  0.1328E+00  0.1313E+00
     -8.654  0.2982E-01  0.2740E-01  0.1360E+00  0.1343E+00
     -8.544  0.2573E-01  0.2613E-01  0.1389E+00  0.1372E+00
     -8.434  0.3635E-01  0.2252E-01  0.1429E+00  0.1397E+00
     -8.324  0.2894E-01  0.3492E-01  0.1460E+00  0.1435E+00
     -8.214  0.4351E-01  0.3374E-01  0.1508E+00  0.1472E+00
     -8.104  0.1999E-01  0.3919E-01  0.1530E+00  0.1515E+00
     -7.994  0.1343E-01  0.1773E-01  0.1545E+00  0.1535E+00
     -7.884  0.2946E-01  0.2268E-01  0.1577E+00  0.1560E+00
     -7.774  0.3736E-01  0.3470E-01  0.1618E+00  0.1598E+00
     -7.664  0.1833E-01  0.3031E-01  0.1639E+00  0.1631E+00
     -7.554  0.1489E-01  0.1725E-01  0.1655E+00  0.1650E+00
     -7.444  0.2090E-01  0.1980E-01  0.1678E+00  0.1672E+00
     -7.335  0.1942E-02  0.7361E-02  0.1680E+00  0.1680E+00
     -7.225  0.1769E-01  0.2527E-02  0.1700E+00  0.1683E+00
     -7.115  0.3808E-01  0.1781E-01  0.1741E+00  0.1702E+00
     -7.005  0.1654E-01  0.3651E-01  0.1760E+00  0.1742E+00
     -6.895  0.1724E-01  0.2311E-01  0.1779E+00  0.1768E+00
     -6.785  0.3929E-01  0.1799E-01  0.1822E+00  0.1788E+00
     -6.675  0.5941E-01  0.5725E-01  0.1887E+00  0.1851E+00
     -6.565  0.5403E-01  0.4119E-01  0.1946E+00  0.1896E+00
     -6.455  0.2528E-01  0.4300E-01  0.1974E+00  0.1943E+00
     -6.345  0.2012E-01  0.2340E-01  0.1996E+00  0.1969E+00
     -6.235  0.4245E-02  0.1049E-01  0.2001E+00  0.1980E+00
     -6.125  0.1610E-01  0.1319E-01  0.2019E+00  0.1995E+00
     -6.015  0.2998E-01  0.1446E-01  0.2052E+00  0.2011E+00
     -5.905  0.4014E-01  0.3809E-01  0.2096E+00  0.2053E+00
     -5.795  0.1084E-01  0.2653E-01  0.2108E+00  0.2082E+00
     -5.685  0.1467E-01  0.1154E-01  0.2124E+00  0.2095E+00
     -5.575  0.1920E-01  0.9156E-02  0.2145E+00  0.2105E+00
     -5.465  0.2205E-01  0.2375E-01  0.2169E+00  0.2131E+00
     -5.356  0.3292E-01  0.1333E-01  0.2205E+00  0.2145E+00
     -5.246  0.3281E-01  0.2389E-01  0.2241E+00  0.2172E+00
     -5.136  0.2785E-01  0.2617E-01  0.2272E+00  0.2200E+00
     -5.026  0.3631E-01  0.3556E-01  0.2312E+00  0.2240E+00
     -4.916  0.2828E-01  0.3923E-01  0.2343E+00  0.2283E+00
     -4.806  0.4434E-01  0.2437E-01  0.2392E+00  0.2309E+00
     -4.696  0.3960E-01  0.2025E-01  0.2435E+00  0.2332E+00
     -4.586  0.3644E-01  0.3547E-01  0.2475E+00  0.2371E+00
     -4.476  0.3182E-01  0.2545E-01  0.2510E+00  0.2399E+00
     -4.366  0.3728E-01  0.3241E-01  0.2551E+00  0.2434E+00
     -4.256  0.2982E-01  0.3227E-01  0.2584E+00  0.2470E+00
     -4.146  0.3859E-01  0.3948E-01  0.2627E+00  0.2513E+00
     -4.036  0.5579E-01  0.4218E-01  0.2688E+00  0.2560E+00
     -3.926  0.4474E-01  0.5283E-01  0.2737E+00  0.2618E+00
     -3.816  0.3474E-01  0.4241E-01  0.2775E+00  0.2664E+00
     -3.706  0.3214E-01  0.4528E-01  0.2811E+00  0.2714E+00
     -3.596  0.1829E-01  0.1477E-01  0.2831E+00  0.2730E+00
     -3.486  0.2382E-01  0.2019E-01  0.2857E+00  0.2752E+00
     -3.377  0.2151E-01  0.2349E-01  0.2881E+00  0.2778E+00
     -3.267  0.3288E-01  0.8892E-02  0.2917E+00  0.2788E+00
     -3.157  0.4678E-01  0.3575E-01  0.2968E+00  0.2827E+00
     -3.047  0.5073E-01  0.4210E-01  0.3024E+00  0.2874E+00
     -2.937  0.3847E-01  0.3449E-01  0.3066E+00  0.2912E+00
     -2.827  0.1438E-01  0.1509E-01  0.3082E+00  0.2928E+00
     -2.717  0.2882E-01  0.3548E-02  0.3114E+00  0.2932E+00
     -2.607  0.5208E-01  0.1138E-01  0.3171E+00  0.2945E+00
     -2.497  0.5308E-01  0.2195E-01  0.3229E+00  0.2969E+00
     -2.387  0.6439E-01  0.2981E-01  0.3300E+00  0.3002E+00
     -2.277  0.5385E-01  0.1649E-01  0.3359E+00  0.3020E+00
     -2.167  0.4969E-01  0.1864E-01  0.3414E+00  0.3040E+00
     -2.057  0.3366E-01  0.2056E-01  0.3451E+00  0.3063E+00
     -1.947  0.1392E-01  0.1502E-01  0.3466E+00  0.3079E+00
     -1.837  0.1850E-01  0.3644E-01  0.3487E+00  0.3119E+00
     -1.727  0.2632E-01  0.1488E-01  0.3516E+00  0.3136E+00
     -1.617  0.1952E-01  0.1170E-01  0.3537E+00  0.3149E+00
     -1.507  0.1856E-01  0.3025E-01  0.3557E+00  0.3182E+00
     -1.398  0.1481E-01  0.2652E-01  0.3574E+00  0.3211E+00
     -1.288  0.2787E-01  0.3032E-01  0.3604E+00  0.3244E+00
     -1.178  0.1973E-01  0.2240E-01  0.3626E+00  0.3269E+00
     -1.068  0.3037E-01  0.3258E-01  0.3659E+00  0.3305E+00
     -0.958  0.2695E-01  0.3771E-01  0.3689E+00  0.3346E+00
     -0.848  0.2786E-01  0.4871E-01  0.3720E+00  0.3400E+00
     -0.738  0.2350E-01  0.5328E-01  0.3746E+00  0.3458E+00
     -0.628  0.4004E-02  0.1606E-01  0.3750E+00  0.3476E+00
     -0.518  0.2811E-05  0.4252E-02  0.3750E+00  0.3481E+00
     -0.408  0.6358E-04  0.1333E-01  0.3750E+00  0.3495E+00
     -0.298  0.6797E-02  0.3056E-01  0.3758E+00  0.3529E+00
     -0.188  0.1339E-01  0.3816E-01  0.3772E+00  0.3571E+00
     -0.078  0.1253E-01  0.3399E-01  0.3786E+00  0.3608E+00
      0.032  0.3602E-02  0.1363E-01  0.3790E+00  0.3623E+00
      0.142  0.3148E-02  0.1693E-01  0.3793E+00  0.3642E+00
      0.252  0.6065E-02  0.2000E-01  0.3800E+00  0.3664E+00
      0.362  0.7479E-02  0.2620E-01  0.3808E+00  0.3693E+00
      0.471  0.1070E-01  0.3754E-01  0.3820E+00  0.3734E+00
      0.581  0.9398E-02  0.2351E-01  0.3830E+00  0.3760E+00
      0.691  0.1721E-01  0.8857E-02  0.3849E+00  0.3770E+00
      0.801  0.2342E-01  0.1817E-01  0.3875E+00  0.3789E+00
      0.911  0.2260E-01  0.3404E-01  0.3900E+00  0.3827E+00
      1.021  0.2823E-01  0.2657E-01  0.3931E+00  0.3856E+00
      1.131  0.1452E-01  0.5212E-01  0.3947E+00  0.3913E+00
      1.241  0.2747E-02  0.2403E-01  0.3950E+00  0.3940E+00
      1.351  0.1274E-05  0.1670E-03  0.3950E+00  0.3940E+00
      1.461  0.7074E-13  0.4538E-02  0.3950E+00  0.3945E+00
      1.571  0.0000E+00  0.4540E-02  0.3950E+00  0.3950E+00
      1.681  0.0000E+00  0.8525E-05  0.3950E+00  0.3950E+00
      1.791  0.2855E-14  0.2274E-11  0.3950E+00  0.3950E+00
      1.901  0.2008E-06  0.0000E+00  0.3950E+00  0.3950E+00
      2.011  0.1499E-02  0.0000E+00  0.3952E+00  0.3950E+00
      2.121  0.7448E-02  0.9093E-13  0.3960E+00  0.3950E+00
      2.231  0.1143E-02  0.1486E-05  0.3961E+00  0.3950E+00
      2.341  0.1586E-01  0.3466E-02  0.3979E+00  0.3954E+00
      2.450  0.1477E-01  0.1824E-01  0.3995E+00  0.3974E+00
      2.560  0.2593E-01  0.1994E-01  0.4023E+00  0.3996E+00
      2.670  0.4730E-01  0.4277E-01  0.4075E+00  0.4043E+00
      2.780  0.4713E-01  0.4850E-01  0.4127E+00  0.4096E+00
      2.890  0.6143E-02  0.2215E-01  0.4134E+00  0.4120E+00
      3.000  0.1520E-01  0.1535E-01  0.4151E+00  0.4137E+00
      3.110  0.1072E-01  0.6187E-02  0.4162E+00  0.4144E+00
      3.220  0.8816E-02  0.1507E-01  0.4172E+00  0.4161E+00
      3.330  0.1309E-01  0.1634E-01  0.4186E+00  0.4179E+00
      3.440  0.1099E-01  0.7257E-02  0.4198E+00  0.4187E+00
      3.550  0.1607E-02  0.1186E-01  0.4200E+00  0.4200E+00
      3.660  0.1267E-01  0.8957E-03  0.4214E+00  0.4201E+00
      3.770  0.1344E-01  0.1223E-01  0.4229E+00  0.4214E+00
      3.880  0.1913E-01  0.1802E-01  0.4250E+00  0.4234E+00
      3.990  0.1523E-01  0.1484E-01  0.4267E+00  0.4250E+00
      4.100  0.5447E-02  0.1546E-01  0.4273E+00  0.4267E+00
      4.210  0.1535E-01  0.1584E-01  0.4290E+00  0.4285E+00
      4.320  0.1606E-01  0.1057E-01  0.4307E+00  0.4296E+00
      4.429  0.2871E-01  0.2036E-01  0.4339E+00  0.4319E+00
      4.539  0.2729E-01  0.3070E-01  0.4369E+00  0.4352E+00
      4.649  0.1915E-01  0.1991E-01  0.4390E+00  0.4374E+00
      4.759  0.8783E-02  0.1309E-01  0.4400E+00  0.4389E+00
      4.869  0.2067E-02  0.1022E-01  0.4402E+00  0.4400E+00
      4.979  0.1518E-01  0.6076E-02  0.4419E+00  0.4407E+00
      5.089  0.2993E-01  0.1878E-01  0.4451E+00  0.4427E+00
      5.199  0.2361E-01  0.3220E-01  0.4477E+00  0.4463E+00
      5.309  0.2739E-01  0.1999E-01  0.4507E+00  0.4485E+00
      5.419  0.2968E-01  0.2994E-01  0.4540E+00  0.4518E+00
      5.529  0.3143E-01  0.3133E-01  0.4575E+00  0.4552E+00
      5.639  0.2253E-01  0.2617E-01  0.4599E+00  0.4581E+00
      5.749  0.1601E-01  0.1926E-01  0.4617E+00  0.4602E+00
      5.859  0.2686E-02  0.1614E-01  0.4620E+00  0.4620E+00
      5.969  0.1172E-05  0.2316E-03  0.4620E+00  0.4620E+00
      6.079  0.6095E-13  0.1645E-08  0.4620E+00  0.4620E+00
      6.189  0.0000E+00  0.1010E-17  0.4620E+00  0.4620E+00
      6.299  0.0000E+00  0.0000E+00  0.4620E+00  0.4620E+00
      6.408  0.0000E+00  0.0000E+00  0.4620E+00  0.4620E+00
      6.518  0.0000E+00  0.0000E+00  0.4620E+00  0.4620E+00
      6.628  0.0000E+00  0.0000E+00  0.4620E+00  0.4620E+00
      6.738  0.0000E+00  0.0000E+00  0.4620E+00  0.4620E+00
      6.848  0.0000E+00  0.0000E+00  0.4620E+00  0.4620E+00
      6.958  0.0000E+00  0.0000E+00  0.4620E+00  0.4620E+00
      7.068  0.0000E+00  0.0000E+00  0.4620E+00  0.4620E+00
      7.178  0.0000E+00  0.0000E+00  0.4620E+00  0.4620E+00
      7.288  0.0000E+00  0.0000E+00  0.4620E+00  0.4620E+00
