   6   6   0   0
  0.4500000E+04  0.3000000E-08  0.3000000E-08  0.3000000E-08  0.5000000E-15
  1.000000000000000E-004
  CAR 
 Co–organic framework                  
      1.26347229    -27.45972586  301     -5.71387126      1.00000000
    -27.460  0.0000E+00  0.0000E+00  0.0000E+00  0.0000E+00
    -27.364  0.0000E+00  0.0000E+00  0.0000E+00  0.0000E+00
    -27.268  0.0000E+00  0.0000E+00  0.0000E+00  0.0000E+00
    -27.172  0.0000E+00  0.0000E+00  0.0000E+00  0.0000E+00
    -27.077  0.0000E+00  0.0000E+00  0.0000E+00  0.0000E+00
    -26.981  0.0000E+00  0.0000E+00  0.0000E+00  0.0000E+00
    -26.885  0.0000E+00  0.0000E+00  0.0000E+00  0.0000E+00
    -26.790  0.0000E+00  0.0000E+00  0.0000E+00  0.0000E+00
    -26.694  0.0000E+00  0.0000E+00  0.0000E+00  0.0000E+00
    -26.598  0.0000E+00  0.0000E+00  0.0000E+00  0.0000E+00
    -26.502  0.0000E+00  0.0000E+00  0.0000E+00  0.0000E+00
    -26.407  0.0000E+00  0.4895E-14  0.0000E+00  0.4687E-15
    -26.311  0.0000E+00  0.4890E-07  0.0000E+00  0.4682E-08
    -26.215  0.0000E+00  0.4430E-03  0.0000E+00  0.4242E-04
    -26.119  0.0000E+00  0.8306E-02  0.0000E+00  0.8376E-03
    -26.024  0.1982E-10  0.1695E-02  0.1898E-11  0.9999E-03
    -25.928  0.7564E-05  0.1158E-05  0.7242E-06  0.1000E-02
    -25.832  0.3301E-02  0.8069E-12  0.3168E-03  0.1000E-02
    -25.736  0.7002E-02  0.0000E+00  0.9872E-03  0.1000E-02
    -25.641  0.1340E-03  0.0000E+00  0.1000E-02  0.1000E-02
    -25.545  0.4094E-08  0.0000E+00  0.1000E-02  0.1000E-02
    -25.449  0.1067E-15  0.0000E+00  0.1000E-02  0.1000E-02
    -25.353  0.0000E+00  0.0000E+00  0.1000E-02  0.1000E-02
    -25.258  0.0000E+00  0.0000E+00  0.1000E-02  0.1000E-02
    -25.162  0.0000E+00  0.0000E+00  0.1000E-02  0.1000E-02
    -25.066  0.0000E+00  0.0000E+00  0.1000E-02  0.1000E-02
    -24.970  0.0000E+00  0.0000E+00  0.1000E-02  0.1000E-02
    -24.875  0.0000E+00  0.0000E+00  0.1000E-02  0.1000E-02
    -24.779  0.0000E+00  0.0000E+00  0.1000E-02  0.1000E-02
    -24.683  0.0000E+00  0.0000E+00  0.1000E-02  0.1000E-02
    -24.587  0.0000E+00  0.0000E+00  0.1000E-02  0.1000E-02
    -24.492  0.0000E+00  0.0000E+00  0.1000E-02  0.1000E-02
    -24.396  0.0000E+00  0.0000E+00  0.1000E-02  0.1000E-02
    -24.300  0.0000E+00  0.0000E+00  0.1000E-02  0.1000E-02
    -24.204  0.0000E+00  0.0000E+00  0.1000E-02  0.1000E-02
    -24.109  0.0000E+00  0.0000E+00  0.1000E-02  0.1000E-02
    -24.013  0.0000E+00  0.0000E+00  0.1000E-02  0.1000E-02
    -23.917  0.0000E+00  0.0000E+00  0.1000E-02  0.1000E-02
    -23.821  0.0000E+00  0.0000E+00  0.1000E-02  0.1000E-02
    -23.726  0.0000E+00  0.0000E+00  0.1000E-02  0.1000E-02
    -23.630  0.0000E+00  0.0000E+00  0.1000E-02  0.1000E-02
    -23.534  0.0000E+00  0.0000E+00  0.1000E-02  0.1000E-02
    -23.438  0.0000E+00  0.0000E+00  0.1000E-02  0.1000E-02
    -23.343  0.0000E+00  0.0000E+00  0.1000E-02  0.1000E-02
    -23.247  0.0000E+00  0.0000E+00  0.1000E-02  0.1000E-02
    -23.151  0.0000E+00  0.0000E+00  0.1000E-02  0.1000E-02
    -23.056  0.0000E+00  0.0000E+00  0.1000E-02  0.1000E-02
    -22.960  0.0000E+00  0.0000E+00  0.1000E-02  0.1000E-02
    -22.864  0.0000E+00  0.0000E+00  0.1000E-02  0.1000E-02
    -22.768  0.0000E+00  0.0000E+00  0.1000E-02  0.1000E-02
    -22.673  0.0000E+00  0.0000E+00  0.1000E-02  0.1000E-02
    -22.577  0.0000E+00  0.0000E+00  0.1000E-02  0.1000E-02
    -22.481  0.0000E+00  0.0000E+00  0.1000E-02  0.1000E-02
    -22.385  0.0000E+00  0.0000E+00  0.1000E-02  0.1000E-02
    -22.290  0.0000E+00  0.0000E+00  0.1000E-02  0.1000E-02
    -22.194  0.0000E+00  0.0000E+00  0.1000E-02  0.1000E-02
    -22.098  0.0000E+00  0.0000E+00  0.1000E-02  0.1000E-02
    -22.002  0.0000E+00  0.0000E+00  0.1000E-02  0.1000E-02
    -21.907  0.0000E+00  0.0000E+00  0.1000E-02  0.1000E-02
    -21.811  0.0000E+00  0.0000E+00  0.1000E-02  0.1000E-02
    -21.715  0.0000E+00  0.0000E+00  0.1000E-02  0.1000E-02
    -21.619  0.0000E+00  0.0000E+00  0.1000E-02  0.1000E-02
    -21.524  0.0000E+00  0.0000E+00  0.1000E-02  0.1000E-02
    -21.428  0.0000E+00  0.0000E+00  0.1000E-02  0.1000E-02
    -21.332  0.0000E+00  0.0000E+00  0.1000E-02  0.1000E-02
    -21.236  0.0000E+00  0.0000E+00  0.1000E-02  0.1000E-02
    -21.141  0.0000E+00  0.0000E+00  0.1000E-02  0.1000E-02
    -21.045  0.0000E+00  0.0000E+00  0.1000E-02  0.1000E-02
    -20.949  0.0000E+00  0.0000E+00  0.1000E-02  0.1000E-02
    -20.853  0.0000E+00  0.0000E+00  0.1000E-02  0.1000E-02
    -20.758  0.0000E+00  0.0000E+00  0.1000E-02  0.1000E-02
    -20.662  0.0000E+00  0.0000E+00  0.1000E-02  0.1000E-02
    -20.566  0.0000E+00  0.0000E+00  0.1000E-02  0.1000E-02
    -20.470  0.0000E+00  0.0000E+00  0.1000E-02  0.1000E-02
    -20.375  0.0000E+00  0.0000E+00  0.1000E-02  0.1000E-02
    -20.279  0.0000E+00  0.0000E+00  0.1000E-02  0.1000E-02
    -20.183  0.0000E+00  0.0000E+00  0.1000E-02  0.1000E-02
    -20.087  0.0000E+00  0.0000E+00  0.1000E-02  0.1000E-02
    -19.992  0.0000E+00  0.0000E+00  0.1000E-02  0.1000E-02
    -19.896  0.0000E+00  0.0000E+00  0.1000E-02  0.1000E-02
    -19.800  0.0000E+00  0.0000E+00  0.1000E-02  0.1000E-02
    -19.704  0.0000E+00  0.0000E+00  0.1000E-02  0.1000E-02
    -19.609  0.0000E+00  0.0000E+00  0.1000E-02  0.1000E-02
    -19.513  0.0000E+00  0.0000E+00  0.1000E-02  0.1000E-02
    -19.417  0.0000E+00  0.0000E+00  0.1000E-02  0.1000E-02
    -19.321  0.0000E+00  0.0000E+00  0.1000E-02  0.1000E-02
    -19.226  0.0000E+00  0.1656E-12  0.1000E-02  0.1000E-02
    -19.130  0.0000E+00  0.4430E-06  0.1000E-02  0.1000E-02
    -19.034  0.0000E+00  0.1157E-02  0.1000E-02  0.1111E-02
    -18.939  0.0000E+00  0.8570E-02  0.1000E-02  0.1931E-02
    -18.843  0.0000E+00  0.7171E-03  0.1000E-02  0.2000E-02
    -18.747  0.0000E+00  0.1432E-06  0.1000E-02  0.2000E-02
    -18.651  0.1739E-17  0.2680E-13  0.1000E-02  0.2000E-02
    -18.556  0.2378E-09  0.0000E+00  0.1000E-02  0.2000E-02
    -18.460  0.3020E-04  0.0000E+00  0.1003E-02  0.2000E-02
    -18.364  0.4976E-02  0.0000E+00  0.1479E-02  0.2000E-02
    -18.268  0.5397E-02  0.0000E+00  0.1996E-02  0.2000E-02
    -18.173  0.4126E-04  0.0000E+00  0.2000E-02  0.2000E-02
    -18.077  0.4244E-09  0.0000E+00  0.2000E-02  0.2000E-02
    -17.981  0.3479E-17  0.0000E+00  0.2000E-02  0.2000E-02
    -17.885  0.0000E+00  0.0000E+00  0.2000E-02  0.2000E-02
    -17.790  0.0000E+00  0.0000E+00  0.2000E-02  0.2000E-02
    -17.694  0.0000E+00  0.0000E+00  0.2000E-02  0.2000E-02
    -17.598  0.0000E+00  0.0000E+00  0.2000E-02  0.2000E-02
    -17.502  0.0000E+00  0.0000E+00  0.2000E-02  0.2000E-02
    -17.407  0.0000E+00  0.0000E+00  0.2000E-02  0.2000E-02
    -17.311  0.0000E+00  0.0000E+00  0.2000E-02  0.2000E-02
    -17.215  0.0000E+00  0.0000E+00  0.2000E-02  0.2000E-02
    -17.119  0.0000E+00  0.0000E+00  0.2000E-02  0.2000E-02
    -17.024  0.0000E+00  0.0000E+00  0.2000E-02  0.2000E-02
    -16.928  0.0000E+00  0.0000E+00  0.2000E-02  0.2000E-02
    -16.832  0.0000E+00  0.0000E+00  0.2000E-02  0.2000E-02
    -16.736  0.0000E+00  0.0000E+00  0.2000E-02  0.2000E-02
    -16.641  0.0000E+00  0.0000E+00  0.2000E-02  0.2000E-02
    -16.545  0.0000E+00  0.0000E+00  0.2000E-02  0.2000E-02
    -16.449  0.0000E+00  0.0000E+00  0.2000E-02  0.2000E-02
    -16.353  0.0000E+00  0.0000E+00  0.2000E-02  0.2000E-02
    -16.258  0.0000E+00  0.0000E+00  0.2000E-02  0.2000E-02
    -16.162  0.0000E+00  0.0000E+00  0.2000E-02  0.2000E-02
    -16.066  0.0000E+00  0.0000E+00  0.2000E-02  0.2000E-02
    -15.970  0.0000E+00  0.0000E+00  0.2000E-02  0.2000E-02
    -15.875  0.0000E+00  0.0000E+00  0.2000E-02  0.2000E-02
    -15.779  0.0000E+00  0.0000E+00  0.2000E-02  0.2000E-02
    -15.683  0.0000E+00  0.0000E+00  0.2000E-02  0.2000E-02
    -15.587  0.0000E+00  0.0000E+00  0.2000E-02  0.2000E-02
    -15.492  0.0000E+00  0.0000E+00  0.2000E-02  0.2000E-02
    -15.396  0.0000E+00  0.0000E+00  0.2000E-02  0.2000E-02
    -15.300  0.0000E+00  0.0000E+00  0.2000E-02  0.2000E-02
    -15.204  0.0000E+00  0.0000E+00  0.2000E-02  0.2000E-02
    -15.109  0.0000E+00  0.0000E+00  0.2000E-02  0.2000E-02
    -15.013  0.0000E+00  0.0000E+00  0.2000E-02  0.2000E-02
    -14.917  0.0000E+00  0.0000E+00  0.2000E-02  0.2000E-02
    -14.822  0.0000E+00  0.0000E+00  0.2000E-02  0.2000E-02
    -14.726  0.0000E+00  0.0000E+00  0.2000E-02  0.2000E-02
    -14.630  0.0000E+00  0.4668E-13  0.2000E-02  0.2000E-02
    -14.534  0.0000E+00  0.2026E-06  0.2000E-02  0.2000E-02
    -14.439  0.7286E-14  0.8331E-03  0.2000E-02  0.2080E-02
    -14.343  0.6299E-07  0.8603E-02  0.2000E-02  0.2903E-02
    -14.247  0.4973E-03  0.1008E-02  0.2048E-02  0.3000E-02
    -14.151  0.8388E-02  0.3177E-06  0.2851E-02  0.3000E-02
    -14.056  0.1558E-02  0.9647E-13  0.3000E-02  0.3000E-02
    -13.960  0.9321E-06  0.0000E+00  0.3000E-02  0.3000E-02
    -13.864  0.5625E-12  0.0000E+00  0.3000E-02  0.3000E-02
    -13.768  0.0000E+00  0.0000E+00  0.3000E-02  0.3000E-02
    -13.673  0.0000E+00  0.0000E+00  0.3000E-02  0.3000E-02
    -13.577  0.0000E+00  0.0000E+00  0.3000E-02  0.3000E-02
    -13.481  0.0000E+00  0.0000E+00  0.3000E-02  0.3000E-02
    -13.385  0.0000E+00  0.0000E+00  0.3000E-02  0.3000E-02
    -13.290  0.0000E+00  0.0000E+00  0.3000E-02  0.3000E-02
    -13.194  0.0000E+00  0.0000E+00  0.3000E-02  0.3000E-02
    -13.098  0.0000E+00  0.0000E+00  0.3000E-02  0.3000E-02
    -13.002  0.0000E+00  0.0000E+00  0.3000E-02  0.3000E-02
    -12.907  0.0000E+00  0.0000E+00  0.3000E-02  0.3000E-02
    -12.811  0.0000E+00  0.0000E+00  0.3000E-02  0.3000E-02
    -12.715  0.0000E+00  0.0000E+00  0.3000E-02  0.3000E-02
    -12.619  0.0000E+00  0.0000E+00  0.3000E-02  0.3000E-02
    -12.524  0.0000E+00  0.0000E+00  0.3000E-02  0.3000E-02
    -12.428  0.0000E+00  0.4967E-10  0.3000E-02  0.3000E-02
    -12.332  0.1212E-15  0.1272E-04  0.3000E-02  0.3001E-02
    -12.236  0.4443E-08  0.3886E-02  0.3000E-02  0.3373E-02
    -12.141  0.1396E-03  0.6456E-02  0.3013E-02  0.3991E-02
    -12.045  0.7056E-02  0.8921E-04  0.3689E-02  0.4000E-02
    -11.949  0.3242E-02  0.1841E-08  0.3999E-02  0.4000E-02
    -11.853  0.7157E-05  0.3247E-16  0.4000E-02  0.4000E-02
    -11.758  0.1799E-10  0.0000E+00  0.4000E-02  0.4000E-02
    -11.662  0.0000E+00  0.0000E+00  0.4000E-02  0.4000E-02
    -11.566  0.0000E+00  0.0000E+00  0.4000E-02  0.4000E-02
    -11.470  0.0000E+00  0.0000E+00  0.4000E-02  0.4000E-02
    -11.375  0.0000E+00  0.0000E+00  0.4000E-02  0.4000E-02
    -11.279  0.0000E+00  0.4372E-12  0.4000E-02  0.4000E-02
    -11.183  0.0000E+00  0.8004E-06  0.4000E-02  0.4000E-02
    -11.088  0.9794E-13  0.1468E-02  0.4000E-02  0.4141E-02
    -10.992  0.3207E-06  0.8438E-02  0.4000E-02  0.4948E-02
    -10.896  0.1012E-02  0.5379E-03  0.4097E-02  0.5000E-02
    -10.800  0.8602E-02  0.7494E-07  0.4921E-02  0.5000E-02
    -10.705  0.8297E-03  0.9583E-14  0.5000E-02  0.5000E-02
    -10.609  0.2006E-06  0.0000E+00  0.5000E-02  0.5000E-02
    -10.513  0.4597E-13  0.0000E+00  0.5000E-02  0.5000E-02
    -10.417  0.0000E+00  0.4765E-10  0.5000E-02  0.5000E-02
    -10.322  0.0000E+00  0.1243E-04  0.5000E-02  0.5001E-02
    -10.226  0.0000E+00  0.3859E-02  0.5000E-02  0.5371E-02
    -10.130  0.1135E-12  0.6557E-02  0.5000E-02  0.5998E-02
    -10.034  0.3512E-06  0.6302E-02  0.5000E-02  0.6602E-02
     -9.939  0.1051E-02  0.4143E-02  0.5101E-02  0.6998E-02
     -9.843  0.8596E-02  0.1575E-04  0.5924E-02  0.7000E-02
     -9.747  0.7969E-03  0.7275E-10  0.6000E-02  0.7000E-02
     -9.651  0.1937E-04  0.0000E+00  0.6002E-02  0.7000E-02
     -9.556  0.4388E-02  0.0000E+00  0.6422E-02  0.7000E-02
     -9.460  0.5975E-02  0.0000E+00  0.6994E-02  0.7000E-02
     -9.364  0.6284E-04  0.0000E+00  0.7000E-02  0.7000E-02
     -9.268  0.9384E-09  0.0000E+00  0.7000E-02  0.7000E-02
     -9.173  0.1160E-16  0.0000E+00  0.7000E-02  0.7000E-02
     -9.077  0.0000E+00  0.0000E+00  0.7000E-02  0.7000E-02
     -8.981  0.0000E+00  0.0000E+00  0.7000E-02  0.7000E-02
     -8.885  0.0000E+00  0.0000E+00  0.7000E-02  0.7000E-02
     -8.790  0.0000E+00  0.0000E+00  0.7000E-02  0.7000E-02
     -8.694  0.0000E+00  0.0000E+00  0.7000E-02  0.7000E-02
     -8.598  0.0000E+00  0.0000E+00  0.7000E-02  0.7000E-02
     -8.502  0.0000E+00  0.0000E+00  0.7000E-02  0.7000E-02
     -8.407  0.0000E+00  0.0000E+00  0.7000E-02  0.7000E-02
     -8.311  0.0000E+00  0.0000E+00  0.7000E-02  0.7000E-02
     -8.215  0.0000E+00  0.0000E+00  0.7000E-02  0.7000E-02
     -8.119  0.0000E+00  0.0000E+00  0.7000E-02  0.7000E-02
     -8.024  0.0000E+00  0.0000E+00  0.7000E-02  0.7000E-02
     -7.928  0.0000E+00  0.0000E+00  0.7000E-02  0.7000E-02
     -7.832  0.0000E+00  0.0000E+00  0.7000E-02  0.7000E-02
     -7.736  0.0000E+00  0.0000E+00  0.7000E-02  0.7000E-02
     -7.641  0.0000E+00  0.0000E+00  0.7000E-02  0.7000E-02
     -7.545  0.0000E+00  0.0000E+00  0.7000E-02  0.7000E-02
     -7.449  0.0000E+00  0.0000E+00  0.7000E-02  0.7000E-02
     -7.353  0.0000E+00  0.0000E+00  0.7000E-02  0.7000E-02
     -7.258  0.0000E+00  0.0000E+00  0.7000E-02  0.7000E-02
     -7.162  0.0000E+00  0.0000E+00  0.7000E-02  0.7000E-02
     -7.066  0.0000E+00  0.0000E+00  0.7000E-02  0.7000E-02
     -6.971  0.0000E+00  0.0000E+00  0.7000E-02  0.7000E-02
     -6.875  0.0000E+00  0.2766E-13  0.7000E-02  0.7000E-02
     -6.779  0.0000E+00  0.1461E-06  0.7000E-02  0.7000E-02
     -6.683  0.0000E+00  0.7233E-03  0.7000E-02  0.7069E-02
     -6.588  0.0000E+00  0.8573E-02  0.7000E-02  0.7890E-02
     -6.492  0.0000E+00  0.1148E-02  0.7000E-02  0.8000E-02
     -6.396  0.0000E+00  0.4349E-06  0.7000E-02  0.8000E-02
     -6.300  0.0000E+00  0.1436E-04  0.7000E-02  0.8001E-02
     -6.205  0.1076E-11  0.4031E-02  0.7000E-02  0.8387E-02
     -6.109  0.1376E-05  0.6319E-02  0.7000E-02  0.8992E-02
     -6.013  0.1810E-02  0.8068E-04  0.7173E-02  0.9000E-02
     -5.917  0.8230E-02  0.1515E-08  0.7961E-02  0.9000E-02
     -5.822  0.4030E-03  0.2319E-16  0.8000E-02  0.9000E-02
     -5.726  0.3983E-07  0.0000E+00  0.8000E-02  0.9000E-02
     -5.630  0.3551E-14  0.0000E+00  0.8000E-02  0.9000E-02
     -5.534  0.0000E+00  0.0000E+00  0.8000E-02  0.9000E-02
     -5.439  0.0000E+00  0.0000E+00  0.8000E-02  0.9000E-02
     -5.343  0.0000E+00  0.0000E+00  0.8000E-02  0.9000E-02
     -5.247  0.0000E+00  0.0000E+00  0.8000E-02  0.9000E-02
     -5.151  0.3446E-12  0.0000E+00  0.8000E-02  0.9000E-02
     -5.056  0.6928E-06  0.0000E+00  0.8000E-02  0.9000E-02
     -4.960  0.1386E-02  0.0000E+00  0.8133E-02  0.9000E-02
     -4.864  0.8479E-02  0.0000E+00  0.8945E-02  0.9000E-02
     -4.768  0.5785E-03  0.0000E+00  0.9000E-02  0.9000E-02
     -4.673  0.8812E-07  0.0000E+00  0.9000E-02  0.9000E-02
     -4.577  0.1238E-13  0.0000E+00  0.9000E-02  0.9000E-02
     -4.481  0.0000E+00  0.0000E+00  0.9000E-02  0.9000E-02
     -4.385  0.0000E+00  0.0000E+00  0.9000E-02  0.9000E-02
     -4.290  0.0000E+00  0.0000E+00  0.9000E-02  0.9000E-02
     -4.194  0.0000E+00  0.0000E+00  0.9000E-02  0.9000E-02
     -4.098  0.0000E+00  0.0000E+00  0.9000E-02  0.9000E-02
     -4.002  0.0000E+00  0.0000E+00  0.9000E-02  0.9000E-02
     -3.907  0.0000E+00  0.0000E+00  0.9000E-02  0.9000E-02
     -3.811  0.0000E+00  0.0000E+00  0.9000E-02  0.9000E-02
     -3.715  0.0000E+00  0.0000E+00  0.9000E-02  0.9000E-02
     -3.619  0.0000E+00  0.0000E+00  0.9000E-02  0.9000E-02
     -3.524  0.0000E+00  0.0000E+00  0.9000E-02  0.9000E-02
     -3.428  0.0000E+00  0.0000E+00  0.9000E-02  0.9000E-02
     -3.332  0.0000E+00  0.0000E+00  0.9000E-02  0.9000E-02
     -3.236  0.0000E+00  0.0000E+00  0.9000E-02  0.9000E-02
     -3.141  0.0000E+00  0.0000E+00  0.9000E-02  0.9000E-02
     -3.045  0.0000E+00  0.0000E+00  0.9000E-02  0.9000E-02
     -2.949  0.0000E+00  0.0000E+00  0.9000E-02  0.9000E-02
     -2.854  0.0000E+00  0.0000E+00  0.9000E-02  0.9000E-02
     -2.758  0.0000E+00  0.0000E+00  0.9000E-02  0.9000E-02
     -2.662  0.0000E+00  0.0000E+00  0.9000E-02  0.9000E-02
     -2.566  0.0000E+00  0.0000E+00  0.9000E-02  0.9000E-02
     -2.471  0.0000E+00  0.0000E+00  0.9000E-02  0.9000E-02
     -2.375  0.0000E+00  0.0000E+00  0.9000E-02  0.9000E-02
     -2.279  0.0000E+00  0.0000E+00  0.9000E-02  0.9000E-02
     -2.183  0.0000E+00  0.0000E+00  0.9000E-02  0.9000E-02
     -2.088  0.0000E+00  0.0000E+00  0.9000E-02  0.9000E-02
     -1.992  0.0000E+00  0.0000E+00  0.9000E-02  0.9000E-02
     -1.896  0.0000E+00  0.0000E+00  0.9000E-02  0.9000E-02
     -1.800  0.0000E+00  0.0000E+00  0.9000E-02  0.9000E-02
     -1.705  0.0000E+00  0.0000E+00  0.9000E-02  0.9000E-02
     -1.609  0.0000E+00  0.0000E+00  0.9000E-02  0.9000E-02
     -1.513  0.0000E+00  0.7256E-10  0.9000E-02  0.9000E-02
     -1.417  0.0000E+00  0.1572E-04  0.9000E-02  0.9002E-02
     -1.322  0.0000E+00  0.4141E-02  0.9000E-02  0.9398E-02
     -1.226  0.0000E+00  0.6213E-02  0.9000E-02  0.9993E-02
     -1.130  0.0000E+00  0.7471E-04  0.9000E-02  0.1000E-01
     -1.034  0.0000E+00  0.1307E-08  0.9000E-02  0.1000E-01
     -0.939  0.5607E-15  0.1855E-16  0.9000E-02  0.1000E-01
     -0.843  0.1211E-07  0.0000E+00  0.9000E-02  0.1000E-01
     -0.747  0.2291E-03  0.9999E-11  0.9022E-02  0.1000E-01
     -0.651  0.7664E-02  0.5106E-05  0.9756E-02  0.1000E-01
     -0.556  0.2551E-02  0.2898E-02  0.1000E-01  0.1028E-01
     -0.460  0.2506E-02  0.7363E-02  0.1024E-01  0.1098E-01
     -0.364  0.7702E-02  0.1779E-03  0.1098E-01  0.1100E-01
     -0.268  0.2367E-03  0.7388E-08  0.1100E-01  0.1100E-01
     -0.173  0.1171E-05  0.2437E-04  0.1100E-01  0.1100E-01
     -0.077  0.1695E-02  0.4694E-02  0.1116E-01  0.1145E-01
      0.019  0.8306E-02  0.5675E-02  0.1196E-01  0.1200E-01
      0.115  0.4430E-03  0.5057E-04  0.1200E-01  0.1200E-01
      0.210  0.4890E-07  0.6217E-09  0.1200E-01  0.1200E-01
      0.306  0.4896E-14  0.6957E-17  0.1200E-01  0.1200E-01
      0.402  0.0000E+00  0.0000E+00  0.1200E-01  0.1200E-01
      0.498  0.0000E+00  0.0000E+00  0.1200E-01  0.1200E-01
      0.593  0.0000E+00  0.0000E+00  0.1200E-01  0.1200E-01
      0.689  0.0000E+00  0.0000E+00  0.1200E-01  0.1200E-01
      0.785  0.0000E+00  0.0000E+00  0.1200E-01  0.1200E-01
      0.880  0.0000E+00  0.0000E+00  0.1200E-01  0.1200E-01
      0.976  0.0000E+00  0.0000E+00  0.1200E-01  0.1200E-01
      1.072  0.0000E+00  0.0000E+00  0.1200E-01  0.1200E-01
      1.168  0.0000E+00  0.0000E+00  0.1200E-01  0.1200E-01
      1.263  0.0000E+00  0.0000E+00  0.1200E-01  0.1200E-01
