   6   6   0   0
  0.1638644E+03  0.9813847E-09  0.9813847E-09  0.1269558E-08  0.5000000E-15
  1.000000000000000E-004
  CAR 
 Co–organic framework                  
      2.57399170    -27.65645955  301     -2.05504615      1.00000000
    -27.656  0.0000E+00  0.0000E+00  0.0000E+00  0.0000E+00
    -27.556  0.0000E+00  0.0000E+00  0.0000E+00  0.0000E+00
    -27.455  0.0000E+00  0.0000E+00  0.0000E+00  0.0000E+00
    -27.354  0.0000E+00  0.0000E+00  0.0000E+00  0.0000E+00
    -27.253  0.0000E+00  0.0000E+00  0.0000E+00  0.0000E+00
    -27.153  0.0000E+00  0.0000E+00  0.0000E+00  0.0000E+00
    -27.052  0.0000E+00  0.0000E+00  0.0000E+00  0.0000E+00
    -26.951  0.0000E+00  0.0000E+00  0.0000E+00  0.0000E+00
    -26.850  0.0000E+00  0.0000E+00  0.0000E+00  0.0000E+00
    -26.750  0.0000E+00  0.0000E+00  0.0000E+00  0.0000E+00
    -26.649  0.0000E+00  0.0000E+00  0.0000E+00  0.0000E+00
    -26.548  0.2843E-15  0.9861E-16  0.2864E-16  0.9936E-17
    -26.447  0.1540E-07  0.7826E-08  0.1551E-08  0.7886E-09
    -26.346  0.3459E-03  0.2533E-03  0.3486E-04  0.2553E-04
    -26.246  0.8089E-02  0.7842E-02  0.8500E-03  0.8157E-03
    -26.145  0.1488E-02  0.1828E-02  0.9999E-03  0.9999E-03
    -26.044  0.5045E-06  0.8800E-06  0.1000E-02  0.1000E-02
    -25.943  0.8038E-13  0.2048E-12  0.1000E-02  0.1000E-02
    -25.843  0.0000E+00  0.0000E+00  0.1000E-02  0.1000E-02
    -25.742  0.0000E+00  0.0000E+00  0.1000E-02  0.1000E-02
    -25.641  0.0000E+00  0.0000E+00  0.1000E-02  0.1000E-02
    -25.540  0.0000E+00  0.0000E+00  0.1000E-02  0.1000E-02
    -25.440  0.0000E+00  0.0000E+00  0.1000E-02  0.1000E-02
    -25.339  0.0000E+00  0.0000E+00  0.1000E-02  0.1000E-02
    -25.238  0.0000E+00  0.0000E+00  0.1000E-02  0.1000E-02
    -25.137  0.0000E+00  0.0000E+00  0.1000E-02  0.1000E-02
    -25.036  0.0000E+00  0.0000E+00  0.1000E-02  0.1000E-02
    -24.936  0.0000E+00  0.0000E+00  0.1000E-02  0.1000E-02
    -24.835  0.0000E+00  0.0000E+00  0.1000E-02  0.1000E-02
    -24.734  0.0000E+00  0.0000E+00  0.1000E-02  0.1000E-02
    -24.633  0.0000E+00  0.0000E+00  0.1000E-02  0.1000E-02
    -24.533  0.0000E+00  0.0000E+00  0.1000E-02  0.1000E-02
    -24.432  0.0000E+00  0.0000E+00  0.1000E-02  0.1000E-02
    -24.331  0.0000E+00  0.0000E+00  0.1000E-02  0.1000E-02
    -24.230  0.0000E+00  0.0000E+00  0.1000E-02  0.1000E-02
    -24.130  0.0000E+00  0.0000E+00  0.1000E-02  0.1000E-02
    -24.029  0.0000E+00  0.0000E+00  0.1000E-02  0.1000E-02
    -23.928  0.0000E+00  0.0000E+00  0.1000E-02  0.1000E-02
    -23.827  0.0000E+00  0.0000E+00  0.1000E-02  0.1000E-02
    -23.727  0.0000E+00  0.0000E+00  0.1000E-02  0.1000E-02
    -23.626  0.0000E+00  0.0000E+00  0.1000E-02  0.1000E-02
    -23.525  0.0000E+00  0.0000E+00  0.1000E-02  0.1000E-02
    -23.424  0.0000E+00  0.0000E+00  0.1000E-02  0.1000E-02
    -23.323  0.0000E+00  0.0000E+00  0.1000E-02  0.1000E-02
    -23.223  0.0000E+00  0.0000E+00  0.1000E-02  0.1000E-02
    -23.122  0.0000E+00  0.0000E+00  0.1000E-02  0.1000E-02
    -23.021  0.0000E+00  0.0000E+00  0.1000E-02  0.1000E-02
    -22.920  0.0000E+00  0.0000E+00  0.1000E-02  0.1000E-02
    -22.820  0.0000E+00  0.0000E+00  0.1000E-02  0.1000E-02
    -22.719  0.0000E+00  0.0000E+00  0.1000E-02  0.1000E-02
    -22.618  0.0000E+00  0.0000E+00  0.1000E-02  0.1000E-02
    -22.517  0.0000E+00  0.0000E+00  0.1000E-02  0.1000E-02
    -22.417  0.0000E+00  0.0000E+00  0.1000E-02  0.1000E-02
    -22.316  0.0000E+00  0.0000E+00  0.1000E-02  0.1000E-02
    -22.215  0.0000E+00  0.0000E+00  0.1000E-02  0.1000E-02
    -22.114  0.0000E+00  0.0000E+00  0.1000E-02  0.1000E-02
    -22.013  0.0000E+00  0.0000E+00  0.1000E-02  0.1000E-02
    -21.913  0.0000E+00  0.0000E+00  0.1000E-02  0.1000E-02
    -21.812  0.0000E+00  0.0000E+00  0.1000E-02  0.1000E-02
    -21.711  0.0000E+00  0.0000E+00  0.1000E-02  0.1000E-02
    -21.610  0.0000E+00  0.0000E+00  0.1000E-02  0.1000E-02
    -21.510  0.0000E+00  0.0000E+00  0.1000E-02  0.1000E-02
    -21.409  0.0000E+00  0.0000E+00  0.1000E-02  0.1000E-02
    -21.308  0.0000E+00  0.0000E+00  0.1000E-02  0.1000E-02
    -21.207  0.0000E+00  0.0000E+00  0.1000E-02  0.1000E-02
    -21.107  0.0000E+00  0.0000E+00  0.1000E-02  0.1000E-02
    -21.006  0.0000E+00  0.0000E+00  0.1000E-02  0.1000E-02
    -20.905  0.0000E+00  0.0000E+00  0.1000E-02  0.1000E-02
    -20.804  0.0000E+00  0.0000E+00  0.1000E-02  0.1000E-02
    -20.703  0.0000E+00  0.0000E+00  0.1000E-02  0.1000E-02
    -20.603  0.0000E+00  0.0000E+00  0.1000E-02  0.1000E-02
    -20.502  0.0000E+00  0.0000E+00  0.1000E-02  0.1000E-02
    -20.401  0.0000E+00  0.0000E+00  0.1000E-02  0.1000E-02
    -20.300  0.0000E+00  0.0000E+00  0.1000E-02  0.1000E-02
    -20.200  0.0000E+00  0.0000E+00  0.1000E-02  0.1000E-02
    -20.099  0.0000E+00  0.0000E+00  0.1000E-02  0.1000E-02
    -19.998  0.0000E+00  0.0000E+00  0.1000E-02  0.1000E-02
    -19.897  0.0000E+00  0.0000E+00  0.1000E-02  0.1000E-02
    -19.797  0.0000E+00  0.0000E+00  0.1000E-02  0.1000E-02
    -19.696  0.0000E+00  0.0000E+00  0.1000E-02  0.1000E-02
    -19.595  0.0000E+00  0.0000E+00  0.1000E-02  0.1000E-02
    -19.494  0.0000E+00  0.0000E+00  0.1000E-02  0.1000E-02
    -19.393  0.0000E+00  0.0000E+00  0.1000E-02  0.1000E-02
    -19.293  0.0000E+00  0.0000E+00  0.1000E-02  0.1000E-02
    -19.192  0.0000E+00  0.0000E+00  0.1000E-02  0.1000E-02
    -19.091  0.0000E+00  0.0000E+00  0.1000E-02  0.1000E-02
    -18.990  0.0000E+00  0.0000E+00  0.1000E-02  0.1000E-02
    -18.890  0.0000E+00  0.0000E+00  0.1000E-02  0.1000E-02
    -18.789  0.0000E+00  0.0000E+00  0.1000E-02  0.1000E-02
    -18.688  0.0000E+00  0.0000E+00  0.1000E-02  0.1000E-02
    -18.587  0.0000E+00  0.0000E+00  0.1000E-02  0.1000E-02
    -18.487  0.0000E+00  0.0000E+00  0.1000E-02  0.1000E-02
    -18.386  0.0000E+00  0.0000E+00  0.1000E-02  0.1000E-02
    -18.285  0.0000E+00  0.0000E+00  0.1000E-02  0.1000E-02
    -18.184  0.0000E+00  0.0000E+00  0.1000E-02  0.1000E-02
    -18.083  0.0000E+00  0.0000E+00  0.1000E-02  0.1000E-02
    -17.983  0.0000E+00  0.0000E+00  0.1000E-02  0.1000E-02
    -17.882  0.0000E+00  0.0000E+00  0.1000E-02  0.1000E-02
    -17.781  0.0000E+00  0.0000E+00  0.1000E-02  0.1000E-02
    -17.680  0.0000E+00  0.0000E+00  0.1000E-02  0.1000E-02
    -17.580  0.0000E+00  0.0000E+00  0.1000E-02  0.1000E-02
    -17.479  0.0000E+00  0.0000E+00  0.1000E-02  0.1000E-02
    -17.378  0.0000E+00  0.0000E+00  0.1000E-02  0.1000E-02
    -17.277  0.0000E+00  0.0000E+00  0.1000E-02  0.1000E-02
    -17.177  0.0000E+00  0.0000E+00  0.1000E-02  0.1000E-02
    -17.076  0.0000E+00  0.0000E+00  0.1000E-02  0.1000E-02
    -16.975  0.0000E+00  0.0000E+00  0.1000E-02  0.1000E-02
    -16.874  0.0000E+00  0.0000E+00  0.1000E-02  0.1000E-02
    -16.773  0.0000E+00  0.0000E+00  0.1000E-02  0.1000E-02
    -16.673  0.0000E+00  0.0000E+00  0.1000E-02  0.1000E-02
    -16.572  0.0000E+00  0.0000E+00  0.1000E-02  0.1000E-02
    -16.471  0.0000E+00  0.0000E+00  0.1000E-02  0.1000E-02
    -16.370  0.0000E+00  0.0000E+00  0.1000E-02  0.1000E-02
    -16.270  0.0000E+00  0.0000E+00  0.1000E-02  0.1000E-02
    -16.169  0.0000E+00  0.0000E+00  0.1000E-02  0.1000E-02
    -16.068  0.0000E+00  0.0000E+00  0.1000E-02  0.1000E-02
    -15.967  0.0000E+00  0.0000E+00  0.1000E-02  0.1000E-02
    -15.867  0.0000E+00  0.0000E+00  0.1000E-02  0.1000E-02
    -15.766  0.0000E+00  0.0000E+00  0.1000E-02  0.1000E-02
    -15.665  0.0000E+00  0.0000E+00  0.1000E-02  0.1000E-02
    -15.564  0.0000E+00  0.0000E+00  0.1000E-02  0.1000E-02
    -15.464  0.0000E+00  0.0000E+00  0.1000E-02  0.1000E-02
    -15.363  0.0000E+00  0.0000E+00  0.1000E-02  0.1000E-02
    -15.262  0.0000E+00  0.0000E+00  0.1000E-02  0.1000E-02
    -15.161  0.5422E-12  0.0000E+00  0.1000E-02  0.1000E-02
    -15.060  0.1559E-05  0.0000E+00  0.1000E-02  0.1000E-02
    -14.960  0.2238E-02  0.0000E+00  0.1226E-02  0.1000E-02
    -14.859  0.7506E-02  0.0000E+00  0.1982E-02  0.1000E-02
    -14.758  0.1786E-03  0.0000E+00  0.2000E-02  0.1000E-02
    -14.657  0.3738E-08  0.0000E+00  0.2000E-02  0.1000E-02
    -14.557  0.3085E-16  0.0000E+00  0.2000E-02  0.1000E-02
    -14.456  0.0000E+00  0.0000E+00  0.2000E-02  0.1000E-02
    -14.355  0.0000E+00  0.0000E+00  0.2000E-02  0.1000E-02
    -14.254  0.0000E+00  0.0000E+00  0.2000E-02  0.1000E-02
    -14.154  0.0000E+00  0.2399E-11  0.2000E-02  0.1000E-02
    -14.053  0.0000E+00  0.3673E-05  0.2000E-02  0.1000E-02
    -13.952  0.0000E+00  0.2975E-02  0.2000E-02  0.1300E-02
    -13.851  0.0000E+00  0.6846E-02  0.2000E-02  0.1990E-02
    -13.750  0.0000E+00  0.9930E-04  0.2000E-02  0.2000E-02
    -13.650  0.0000E+00  0.1123E-08  0.2000E-02  0.2000E-02
    -13.549  0.0000E+00  0.4407E-17  0.2000E-02  0.2000E-02
    -13.448  0.0000E+00  0.0000E+00  0.2000E-02  0.2000E-02
    -13.347  0.0000E+00  0.0000E+00  0.2000E-02  0.2000E-02
    -13.247  0.0000E+00  0.0000E+00  0.2000E-02  0.2000E-02
    -13.146  0.0000E+00  0.0000E+00  0.2000E-02  0.2000E-02
    -13.045  0.0000E+00  0.0000E+00  0.2000E-02  0.2000E-02
    -12.944  0.0000E+00  0.0000E+00  0.2000E-02  0.2000E-02
    -12.844  0.0000E+00  0.0000E+00  0.2000E-02  0.2000E-02
    -12.743  0.0000E+00  0.0000E+00  0.2000E-02  0.2000E-02
    -12.642  0.0000E+00  0.0000E+00  0.2000E-02  0.2000E-02
    -12.541  0.0000E+00  0.0000E+00  0.2000E-02  0.2000E-02
    -12.440  0.0000E+00  0.0000E+00  0.2000E-02  0.2000E-02
    -12.340  0.0000E+00  0.0000E+00  0.2000E-02  0.2000E-02
    -12.239  0.0000E+00  0.0000E+00  0.2000E-02  0.2000E-02
    -12.138  0.0000E+00  0.0000E+00  0.2000E-02  0.2000E-02
    -12.037  0.0000E+00  0.0000E+00  0.2000E-02  0.2000E-02
    -11.937  0.8577E-14  0.4636E-14  0.2000E-02  0.2000E-02
    -11.836  0.1298E-06  0.8877E-07  0.2000E-02  0.2000E-02
    -11.735  0.8711E-03  0.7442E-03  0.2088E-02  0.2075E-02
    -11.634  0.8384E-02  0.8394E-02  0.2933E-02  0.2921E-02
    -11.534  0.6685E-03  0.7857E-03  0.3000E-02  0.3000E-02
    -11.433  0.6885E-07  0.1011E-06  0.3000E-02  0.3000E-02
    -11.332  0.3077E-14  0.5720E-14  0.3000E-02  0.3000E-02
    -11.231  0.0000E+00  0.0000E+00  0.3000E-02  0.3000E-02
    -11.130  0.0000E+00  0.0000E+00  0.3000E-02  0.3000E-02
    -11.030  0.0000E+00  0.0000E+00  0.3000E-02  0.3000E-02
    -10.929  0.0000E+00  0.0000E+00  0.3000E-02  0.3000E-02
    -10.828  0.0000E+00  0.0000E+00  0.3000E-02  0.3000E-02
    -10.727  0.0000E+00  0.0000E+00  0.3000E-02  0.3000E-02
    -10.627  0.0000E+00  0.0000E+00  0.3000E-02  0.3000E-02
    -10.526  0.0000E+00  0.0000E+00  0.3000E-02  0.3000E-02
    -10.425  0.0000E+00  0.0000E+00  0.3000E-02  0.3000E-02
    -10.324  0.0000E+00  0.0000E+00  0.3000E-02  0.3000E-02
    -10.224  0.0000E+00  0.0000E+00  0.3000E-02  0.3000E-02
    -10.123  0.0000E+00  0.0000E+00  0.3000E-02  0.3000E-02
    -10.022  0.0000E+00  0.0000E+00  0.3000E-02  0.3000E-02
     -9.921  0.0000E+00  0.0000E+00  0.3000E-02  0.3000E-02
     -9.820  0.0000E+00  0.0000E+00  0.3000E-02  0.3000E-02
     -9.720  0.0000E+00  0.0000E+00  0.3000E-02  0.3000E-02
     -9.619  0.4462E-12  0.2114E-13  0.3000E-02  0.3000E-02
     -9.518  0.1402E-05  0.2325E-06  0.3000E-02  0.3000E-02
     -9.417  0.2448E-02  0.1341E-02  0.3247E-02  0.3135E-02
     -9.317  0.1555E-01  0.1616E-01  0.4814E-02  0.4763E-02
     -9.216  0.1842E-02  0.2346E-02  0.5000E-02  0.5000E-02
     -9.115  0.6699E-06  0.9158E-06  0.5000E-02  0.5000E-02
     -9.014  0.1279E-12  0.2050E-12  0.5000E-02  0.5000E-02
     -8.914  0.0000E+00  0.0000E+00  0.5000E-02  0.5000E-02
     -8.813  0.0000E+00  0.0000E+00  0.5000E-02  0.5000E-02
     -8.712  0.0000E+00  0.0000E+00  0.5000E-02  0.5000E-02
     -8.611  0.0000E+00  0.0000E+00  0.5000E-02  0.5000E-02
     -8.511  0.0000E+00  0.0000E+00  0.5000E-02  0.5000E-02
     -8.410  0.0000E+00  0.0000E+00  0.5000E-02  0.5000E-02
     -8.309  0.8814E-17  0.0000E+00  0.5000E-02  0.5000E-02
     -8.208  0.1657E-08  0.0000E+00  0.5000E-02  0.5000E-02
     -8.107  0.1204E-03  0.0000E+00  0.5012E-02  0.5000E-02
     -8.007  0.7095E-02  0.2417E-14  0.5727E-02  0.5000E-02
     -7.906  0.7730E-02  0.5925E-07  0.6506E-02  0.5000E-02
     -7.805  0.4882E-02  0.6271E-03  0.6998E-02  0.5063E-02
     -7.704  0.2063E-04  0.9055E-02  0.7000E-02  0.5976E-02
     -7.604  0.5410E-10  0.9311E-02  0.7000E-02  0.6914E-02
     -7.503  0.0000E+00  0.8545E-03  0.7000E-02  0.7000E-02
     -7.402  0.0000E+00  0.1238E-06  0.7000E-02  0.7000E-02
     -7.301  0.0000E+00  0.7944E-14  0.7000E-02  0.7000E-02
     -7.201  0.1653E-17  0.5509E-18  0.7000E-02  0.7000E-02
     -7.100  0.4991E-09  0.2051E-09  0.7000E-02  0.7000E-02
     -6.999  0.6602E-04  0.4176E-04  0.7007E-02  0.7004E-02
     -6.898  0.6345E-02  0.5766E-02  0.7646E-02  0.7585E-02
     -6.797  0.3506E-02  0.4105E-02  0.7999E-02  0.7999E-02
     -6.697  0.6255E-05  0.1079E-04  0.8000E-02  0.8000E-02
     -6.596  0.6154E-11  0.1641E-10  0.8000E-02  0.8000E-02
     -6.495  0.0000E+00  0.0000E+00  0.8000E-02  0.8000E-02
     -6.394  0.0000E+00  0.0000E+00  0.8000E-02  0.8000E-02
     -6.294  0.0000E+00  0.0000E+00  0.8000E-02  0.8000E-02
     -6.193  0.0000E+00  0.0000E+00  0.8000E-02  0.8000E-02
     -6.092  0.0000E+00  0.0000E+00  0.8000E-02  0.8000E-02
     -5.991  0.0000E+00  0.0000E+00  0.8000E-02  0.8000E-02
     -5.891  0.0000E+00  0.0000E+00  0.8000E-02  0.8000E-02
     -5.790  0.0000E+00  0.0000E+00  0.8000E-02  0.8000E-02
     -5.689  0.0000E+00  0.0000E+00  0.8000E-02  0.8000E-02
     -5.588  0.0000E+00  0.0000E+00  0.8000E-02  0.8000E-02
     -5.487  0.0000E+00  0.0000E+00  0.8000E-02  0.8000E-02
     -5.387  0.0000E+00  0.0000E+00  0.8000E-02  0.8000E-02
     -5.286  0.0000E+00  0.0000E+00  0.8000E-02  0.8000E-02
     -5.185  0.0000E+00  0.0000E+00  0.8000E-02  0.8000E-02
     -5.084  0.0000E+00  0.0000E+00  0.8000E-02  0.8000E-02
     -4.984  0.0000E+00  0.0000E+00  0.8000E-02  0.8000E-02
     -4.883  0.0000E+00  0.0000E+00  0.8000E-02  0.8000E-02
     -4.782  0.0000E+00  0.0000E+00  0.8000E-02  0.8000E-02
     -4.681  0.0000E+00  0.0000E+00  0.8000E-02  0.8000E-02
     -4.581  0.0000E+00  0.0000E+00  0.8000E-02  0.8000E-02
     -4.480  0.0000E+00  0.0000E+00  0.8000E-02  0.8000E-02
     -4.379  0.0000E+00  0.0000E+00  0.8000E-02  0.8000E-02
     -4.278  0.0000E+00  0.0000E+00  0.8000E-02  0.8000E-02
     -4.177  0.0000E+00  0.0000E+00  0.8000E-02  0.8000E-02
     -4.077  0.0000E+00  0.0000E+00  0.8000E-02  0.8000E-02
     -3.976  0.0000E+00  0.0000E+00  0.8000E-02  0.8000E-02
     -3.875  0.0000E+00  0.0000E+00  0.8000E-02  0.8000E-02
     -3.774  0.0000E+00  0.0000E+00  0.8000E-02  0.8000E-02
     -3.674  0.0000E+00  0.0000E+00  0.8000E-02  0.8000E-02
     -3.573  0.0000E+00  0.0000E+00  0.8000E-02  0.8000E-02
     -3.472  0.0000E+00  0.0000E+00  0.8000E-02  0.8000E-02
     -3.371  0.0000E+00  0.0000E+00  0.8000E-02  0.8000E-02
     -3.271  0.0000E+00  0.0000E+00  0.8000E-02  0.8000E-02
     -3.170  0.0000E+00  0.0000E+00  0.8000E-02  0.8000E-02
     -3.069  0.0000E+00  0.0000E+00  0.8000E-02  0.8000E-02
     -2.968  0.0000E+00  0.0000E+00  0.8000E-02  0.8000E-02
     -2.867  0.0000E+00  0.0000E+00  0.8000E-02  0.8000E-02
     -2.767  0.0000E+00  0.0000E+00  0.8000E-02  0.8000E-02
     -2.666  0.0000E+00  0.0000E+00  0.8000E-02  0.8000E-02
     -2.565  0.5575E-11  0.0000E+00  0.8000E-02  0.8000E-02
     -2.464  0.5918E-05  0.0000E+00  0.8001E-02  0.8000E-02
     -2.364  0.3448E-02  0.0000E+00  0.8348E-02  0.8000E-02
     -2.263  0.6400E-02  0.0000E+00  0.8993E-02  0.8000E-02
     -2.162  0.6900E-04  0.0000E+00  0.9000E-02  0.8000E-02
     -2.061  0.5445E-09  0.0000E+00  0.9000E-02  0.8000E-02
     -1.961  0.2204E-17  0.0000E+00  0.9000E-02  0.8000E-02
     -1.860  0.0000E+00  0.0000E+00  0.9000E-02  0.8000E-02
     -1.759  0.0000E+00  0.0000E+00  0.9000E-02  0.8000E-02
     -1.658  0.0000E+00  0.0000E+00  0.9000E-02  0.8000E-02
     -1.558  0.0000E+00  0.0000E+00  0.9000E-02  0.8000E-02
     -1.457  0.0000E+00  0.0000E+00  0.9000E-02  0.8000E-02
     -1.356  0.0000E+00  0.0000E+00  0.9000E-02  0.8000E-02
     -1.255  0.0000E+00  0.0000E+00  0.9000E-02  0.8000E-02
     -1.154  0.0000E+00  0.0000E+00  0.9000E-02  0.8000E-02
     -1.054  0.0000E+00  0.0000E+00  0.9000E-02  0.8000E-02
     -0.953  0.0000E+00  0.0000E+00  0.9000E-02  0.8000E-02
     -0.852  0.0000E+00  0.0000E+00  0.9000E-02  0.8000E-02
     -0.751  0.0000E+00  0.0000E+00  0.9000E-02  0.8000E-02
     -0.651  0.0000E+00  0.0000E+00  0.9000E-02  0.8000E-02
     -0.550  0.0000E+00  0.0000E+00  0.9000E-02  0.8000E-02
     -0.449  0.0000E+00  0.0000E+00  0.9000E-02  0.8000E-02
     -0.348  0.0000E+00  0.0000E+00  0.9000E-02  0.8000E-02
     -0.248  0.0000E+00  0.0000E+00  0.9000E-02  0.8000E-02
     -0.147  0.0000E+00  0.0000E+00  0.9000E-02  0.8000E-02
     -0.046  0.0000E+00  0.0000E+00  0.9000E-02  0.8000E-02
      0.055  0.0000E+00  0.0000E+00  0.9000E-02  0.8000E-02
      0.156  0.0000E+00  0.0000E+00  0.9000E-02  0.8000E-02
      0.256  0.0000E+00  0.0000E+00  0.9000E-02  0.8000E-02
      0.357  0.0000E+00  0.3355E-11  0.9000E-02  0.8000E-02
      0.458  0.0000E+00  0.4444E-05  0.9000E-02  0.8000E-02
      0.559  0.0000E+00  0.3158E-02  0.9000E-02  0.8319E-02
      0.659  0.6889E-10  0.6675E-02  0.9000E-02  0.8991E-02
      0.760  0.2349E-04  0.8623E-04  0.9002E-02  0.9000E-02
      0.861  0.5054E-02  0.6709E-03  0.9512E-02  0.9068E-02
      0.962  0.9358E-02  0.8476E-02  0.1045E-01  0.9922E-02
      1.062  0.1020E-01  0.7613E-02  0.1148E-01  0.1069E-01
      1.163  0.5110E-02  0.4572E-02  0.1200E-01  0.1115E-01
      1.264  0.2425E-04  0.8093E-02  0.1200E-01  0.1197E-01
      1.365  0.7318E-10  0.3459E-03  0.1200E-01  0.1200E-01
      1.466  0.0000E+00  0.1540E-07  0.1200E-01  0.1200E-01
      1.566  0.0000E+00  0.2843E-15  0.1200E-01  0.1200E-01
      1.667  0.0000E+00  0.0000E+00  0.1200E-01  0.1200E-01
      1.768  0.0000E+00  0.0000E+00  0.1200E-01  0.1200E-01
      1.869  0.0000E+00  0.0000E+00  0.1200E-01  0.1200E-01
      1.969  0.0000E+00  0.0000E+00  0.1200E-01  0.1200E-01
      2.070  0.0000E+00  0.0000E+00  0.1200E-01  0.1200E-01
      2.171  0.0000E+00  0.0000E+00  0.1200E-01  0.1200E-01
      2.272  0.0000E+00  0.0000E+00  0.1200E-01  0.1200E-01
      2.372  0.0000E+00  0.0000E+00  0.1200E-01  0.1200E-01
      2.473  0.0000E+00  0.0000E+00  0.1200E-01  0.1200E-01
      2.574  0.0000E+00  0.0000E+00  0.1200E-01  0.1200E-01
