    6    6 1000    2
  0.4500000E+04  0.3000000E-08  0.3000000E-08  0.3000000E-08  0.5000000E-15
  1.000000000000000E-004
  CAR 
 Co–organic framework                  
     17      1     12
 
  0.0000000E+00  0.0000000E+00  0.0000000E+00  0.1000000E+01
    1      -25.815222    -26.154126   1.000000   1.000000
    2      -18.362215    -18.991040   1.000000   1.000000
    3      -14.188067    -14.388814   1.000000   1.000000
    4      -12.062364    -12.225006   1.000000   1.000000
    5      -10.850078    -11.049402   1.000000   1.000000
    6       -9.893400    -10.214135   1.000000   1.000000
    7       -9.548638    -10.043446   1.000000   1.000000
    8       -5.979812     -6.630907   1.000000   1.000000
    9       -4.920522     -6.194434   0.000000   1.000000
   10       -0.675897     -1.312473   0.000000   0.000000
   11       -0.434941     -0.534847   0.000000   0.000000
   12       -0.042128     -0.072661   0.000000   0.000000
