    6    6 1000    2
  0.1638644E+03  0.9813847E-09  0.9813847E-09  0.1269558E-08  0.5000000E-15
  1.000000000000000E-004
  CAR 
 Co–organic framework                  
     17      1     12
 
  0.0000000E+00  0.0000000E+00  0.0000000E+00  0.1000000E+01
    1      -26.282348    -26.277494   1.000000   1.000000
    2      -14.933040    -13.933461   1.000000   1.000000
    3      -11.687201    -11.684192   1.000000   1.000000
    4       -9.389746     -9.373983   1.000000   1.000000
    5       -9.350898     -9.348468   1.000000   1.000000
    6       -8.027778     -7.751089   1.000000   1.000000
    7       -7.906455     -7.651859   1.000000   1.000000
    8       -6.911462     -6.905827   1.000000   1.000000
    9       -2.349843      0.575290   1.000000   0.000000
   10        0.860031      0.913748   0.000000   0.000000
   11        0.965719      1.045055   0.000000   0.000000
   12        1.063737      1.199880   0.000000   0.000000
