       N       E                     dE             d eps       ncg     rms          rms(c)
DAV:   1     0.108972452245E+03    0.10897E+03   -0.43424E+03    60   0.782E+02
DAV:   2     0.337921169250E+02   -0.75180E+02   -0.75089E+02    48   0.168E+02
DAV:   3    -0.155491299303E+02   -0.49341E+02   -0.49229E+02    96   0.119E+02
DAV:   4    -0.220817879433E+02   -0.65327E+01   -0.65291E+01    48   0.417E+01
DAV:   5    -0.226223440289E+02   -0.54056E+00   -0.52598E+00    72   0.185E+01    0.141E+01
RMM:   6    -0.407555439208E+02   -0.18133E+02   -0.53032E+00    48   0.137E+01    0.342E+01
RMM:   7    -0.197600026194E+02    0.20996E+02   -0.54347E+00    50   0.187E+01    0.645E+00
RMM:   8    -0.194743169709E+02    0.28569E+00   -0.47899E-01    50   0.893E+00    0.490E+00
RMM:   9    -0.195048019408E+02   -0.30485E-01   -0.22009E-01    56   0.346E+00    0.729E+00
RMM:  10    -0.192877432807E+02    0.21706E+00   -0.25265E-01    51   0.474E+00    0.427E+00
RMM:  11    -0.194085824035E+02   -0.12084E+00   -0.23555E-01    50   0.358E+00    0.431E+00
RMM:  12    -0.195030568408E+02   -0.94474E-01   -0.69921E-02    52   0.248E+00    0.460E+00
RMM:  13    -0.195058552210E+02   -0.27984E-02   -0.18786E-02    52   0.129E+00    0.462E+00
RMM:  14    -0.195366324159E+02   -0.30777E-01   -0.10971E-01    48   0.282E+00    0.453E+00
RMM:  15    -0.195314126536E+02    0.52198E-02   -0.25547E-01    52   0.422E+00    0.364E+00
RMM:  16    -0.196912785637E+02   -0.15987E+00   -0.52064E-01    49   0.679E+00    0.442E+00
RMM:  17    -0.196657946108E+02    0.25484E-01   -0.11463E-01    49   0.383E+00    0.503E+00
RMM:  18    -0.196946060241E+02   -0.28811E-01   -0.19200E-02    54   0.136E+00    0.508E+00
RMM:  19    -0.199483788262E+02   -0.25377E+00   -0.12187E-01    48   0.291E+00    0.754E+00
RMM:  20    -0.195858291258E+02    0.36255E+00   -0.74524E-01    48   0.778E+00    0.366E+00
RMM:  21    -0.196247171582E+02   -0.38888E-01   -0.17622E-01    48   0.462E+00    0.358E+00
RMM:  22    -0.196214579496E+02    0.32592E-02   -0.18558E-02    55   0.132E+00    0.350E+00
RMM:  23    -0.196426870597E+02   -0.21229E-01   -0.41230E-03    51   0.510E-01    0.369E+00
RMM:  24    -0.196273254695E+02    0.15362E-01   -0.41942E-02    48   0.213E+00    0.256E+00
RMM:  25    -0.198038054337E+02   -0.17648E+00   -0.41825E-01    48   0.605E+00    0.574E+00
RMM:  26    -0.198104346595E+02   -0.66292E-02   -0.64068E-02    48   0.321E+00    0.463E+00
RMM:  27    -0.198718830236E+02   -0.61448E-01   -0.34565E-01    48   0.518E+00    0.303E+00
RMM:  28    -0.199827781534E+02   -0.11090E+00   -0.57251E-02    50   0.250E+00    0.365E+00
RMM:  29    -0.199619624726E+02    0.20816E-01   -0.78255E-03    57   0.831E-01    0.354E+00
RMM:  30    -0.199621161731E+02   -0.15370E-03   -0.54803E-03    48   0.765E-01    0.353E+00
RMM:  31    -0.199623937234E+02   -0.27755E-03   -0.97807E-04    53   0.344E-01    0.353E+00
RMM:  32    -0.199948198242E+02   -0.32426E-01   -0.53235E-03    48   0.742E-01    0.375E+00
RMM:  33    -0.200365683164E+02   -0.41748E-01   -0.48050E-02    48   0.228E+00    0.440E+00
RMM:  34    -0.200341759342E+02    0.23924E-02   -0.31030E-03    48   0.788E-01    0.441E+00
RMM:  35    -0.200458604699E+02   -0.11685E-01   -0.12170E-02    49   0.986E-01    0.467E+00
RMM:  36    -0.200408703679E+02    0.49901E-02   -0.28576E-03    54   0.557E-01    0.472E+00
RMM:  37    -0.200405946824E+02    0.27569E-03   -0.16799E-02    48   0.134E+00    0.426E+00
RMM:  38    -0.199429969894E+02    0.97598E-01   -0.39782E-02    48   0.203E+00    0.338E+00
RMM:  39    -0.198877925115E+02    0.55204E-01   -0.34190E-02    50   0.199E+00    0.250E+00
RMM:  40    -0.199210308716E+02   -0.33238E-01   -0.19979E-02    48   0.151E+00    0.313E+00
RMM:  41    -0.199162610676E+02    0.47698E-02   -0.40156E-02    48   0.224E+00    0.243E+00
RMM:  42    -0.199179486238E+02   -0.16876E-02   -0.16723E-02    56   0.129E+00    0.208E+00
RMM:  43    -0.199316797517E+02   -0.13731E-01   -0.11946E-02    49   0.109E+00    0.226E+00
RMM:  44    -0.199316481349E+02    0.31617E-04   -0.89454E-04    51   0.386E-01    0.225E+00
RMM:  45    -0.199394156057E+02   -0.77675E-02   -0.35760E-03    50   0.596E-01    0.218E+00
RMM:  46    -0.199609520150E+02   -0.21536E-01   -0.44534E-02    48   0.229E+00    0.230E+00
RMM:  47    -0.199610751772E+02   -0.12316E-03   -0.61512E-03    50   0.104E+00    0.235E+00
RMM:  48    -0.199681421006E+02   -0.70669E-02   -0.19776E-03    55   0.318E-01    0.242E+00
RMM:  49    -0.199598014049E+02    0.83407E-02   -0.51120E-03    48   0.793E-01    0.257E+00
RMM:  50    -0.199163619338E+02    0.43439E-01   -0.20161E-02    48   0.155E+00    0.263E+00
RMM:  51    -0.199750593463E+02   -0.58697E-01   -0.10021E-01    48   0.339E+00    0.211E+00
RMM:  52    -0.199904409346E+02   -0.15382E-01   -0.49503E-03    48   0.108E+00    0.227E+00
RMM:  53    -0.199843633594E+02    0.60776E-02   -0.10559E-02    53   0.101E+00    0.238E+00
RMM:  54    -0.199734006392E+02    0.10963E-01   -0.22378E-02    48   0.147E+00    0.224E+00
RMM:  55    -0.199786936141E+02   -0.52930E-02   -0.67272E-02    48   0.274E+00    0.203E+00
RMM:  56    -0.199498977756E+02    0.28796E-01   -0.49659E-02    48   0.248E+00    0.156E+00
RMM:  57    -0.199527202957E+02   -0.28225E-02   -0.47711E-02    49   0.239E+00    0.160E+00
RMM:  58    -0.199619158013E+02   -0.91955E-02   -0.33904E-03    52   0.745E-01    0.161E+00
RMM:  59    -0.199676246056E+02   -0.57088E-02   -0.17766E-02    48   0.143E+00    0.147E+00
RMM:  60    -0.199738400060E+02   -0.62154E-02   -0.48447E-03    48   0.796E-01    0.141E+00
RMM:  61    -0.199609825332E+02    0.12857E-01   -0.62201E-02    48   0.250E+00    0.128E+00
RMM:  62    -0.199753485716E+02   -0.14366E-01   -0.57943E-03    49   0.107E+00    0.125E+00
RMM:  63    -0.199702250183E+02    0.51236E-02   -0.89142E-03    48   0.101E+00    0.136E+00
RMM:  64    -0.199748448479E+02   -0.46198E-02   -0.27247E-02    48   0.182E+00    0.137E+00
RMM:  65    -0.199669939084E+02    0.78509E-02   -0.26811E-02    50   0.194E+00    0.139E+00
RMM:  66    -0.199096028307E+02    0.57391E-01   -0.12848E-01    48   0.372E+00    0.174E+00
RMM:  67    -0.199352021080E+02   -0.25599E-01   -0.78529E-03    49   0.132E+00    0.174E+00
RMM:  68    -0.199356827024E+02   -0.48059E-03   -0.22785E-03    52   0.278E-01    0.176E+00
RMM:  69    -0.199461810710E+02   -0.10498E-01   -0.26148E-03    48   0.554E-01    0.164E+00
RMM:  70    -0.199399512366E+02    0.62298E-02   -0.11656E-02    48   0.118E+00    0.163E+00
RMM:  71    -0.198927378690E+02    0.47213E-01   -0.14568E-01    49   0.423E+00    0.169E+00
RMM:  72    -0.199267896115E+02   -0.34052E-01   -0.55842E-02    49   0.270E+00    0.137E+00
RMM:  73    -0.199381143992E+02   -0.11325E-01   -0.13587E-02    56   0.114E+00    0.136E+00
RMM:  74    -0.199327896599E+02    0.53247E-02   -0.77382E-03    54   0.863E-01    0.144E+00
RMM:  75    -0.199347868344E+02   -0.19972E-02   -0.51458E-04    52   0.283E-01    0.143E+00
RMM:  76    -0.199593207612E+02   -0.24534E-01   -0.20858E-02    48   0.162E+00    0.106E+00
RMM:  77    -0.199616537263E+02   -0.23330E-02   -0.17599E-03    52   0.507E-01    0.106E+00
RMM:  78    -0.199619220843E+02   -0.26836E-03   -0.25104E-04    56   0.976E-02    0.106E+00
RMM:  79    -0.199638598572E+02   -0.19378E-02   -0.18439E-03    48   0.466E-01    0.103E+00
RMM:  80    -0.199648968893E+02   -0.10370E-02   -0.19607E-03    48   0.524E-01    0.104E+00
RMM:  81    -0.199804965366E+02   -0.15600E-01   -0.21939E-02    50   0.139E+00    0.895E-01
RMM:  82    -0.199842097479E+02   -0.37132E-02   -0.12866E-02    51   0.959E-01    0.802E-01
RMM:  83    -0.199896458145E+02   -0.54361E-02   -0.12812E-02    50   0.106E+00    0.842E-01
RMM:  84    -0.199916650591E+02   -0.20192E-02   -0.50852E-03    53   0.727E-01    0.915E-01
RMM:  85    -0.199959695781E+02   -0.43045E-02   -0.65258E-03    51   0.774E-01    0.103E+00
RMM:  86    -0.199907804548E+02    0.51891E-02   -0.11306E-02    49   0.109E+00    0.120E+00
RMM:  87    -0.199898246578E+02    0.95580E-03   -0.12356E-03    49   0.454E-01    0.117E+00
RMM:  88    -0.199930371779E+02   -0.32125E-02   -0.14116E-03    54   0.315E-01    0.120E+00
RMM:  89    -0.199915575798E+02    0.14796E-02   -0.15077E-04    50   0.142E-01    0.119E+00
RMM:  90    -0.199944259575E+02   -0.28684E-02   -0.94062E-04    48   0.302E-01    0.124E+00
RMM:  91    -0.199842356983E+02    0.10190E-01   -0.85428E-03    48   0.849E-01    0.111E+00
RMM:  92    -0.199884302734E+02   -0.41946E-02   -0.78638E-04    48   0.365E-01    0.114E+00
RMM:  93    -0.199901096530E+02   -0.16794E-02   -0.16308E-03    49   0.430E-01    0.114E+00
RMM:  94    -0.199891306743E+02    0.97898E-03   -0.13045E-03    50   0.394E-01    0.118E+00
RMM:  95    -0.199893623322E+02   -0.23166E-03   -0.18194E-04    53   0.152E-01    0.117E+00
RMM:  96    -0.199772005349E+02    0.12162E-01   -0.47929E-02    48   0.230E+00    0.771E-01
RMM:  97    -0.199883746824E+02   -0.11174E-01   -0.30191E-03    50   0.747E-01    0.776E-01
RMM:  98    -0.199887015265E+02   -0.32684E-03   -0.12057E-03    55   0.292E-01    0.791E-01
RMM:  99    -0.199910931116E+02   -0.23916E-02   -0.18490E-04    48   0.187E-01    0.792E-01
RMM: 100    -0.199863908718E+02    0.47022E-02   -0.13399E-03    48   0.380E-01
   1 F= -.20028928E+02 E0= -.20028928E+02  d E =-.200289E+02  mag=     1.0088
       N       E                     dE             d eps       ncg     rms          rms(c)
DAV:   1    -0.212786680289E+02   -0.12876E+01   -0.10285E+02    48   0.143E+02    0.108E+01
RMM:   2    -0.236075986763E+02   -0.23289E+01   -0.13337E+01    50   0.358E+01    0.165E+01
RMM:   3    -0.205028450651E+02    0.31048E+01   -0.21373E+00    49   0.141E+01    0.546E+00
RMM:   4    -0.206129558136E+02   -0.11011E+00   -0.84927E-01    54   0.869E+00    0.366E+00
RMM:   5    -0.205964781792E+02    0.16478E-01   -0.12061E-01    50   0.364E+00    0.231E+00
RMM:   6    -0.205660809275E+02    0.30397E-01   -0.22153E-01    51   0.463E+00    0.180E+00
RMM:   7    -0.205972725479E+02   -0.31192E-01   -0.11197E-01    53   0.297E+00    0.202E+00
RMM:   8    -0.206013252148E+02   -0.40527E-02   -0.89854E-03    55   0.100E+00    0.203E+00
RMM:   9    -0.205462203119E+02    0.55105E-01   -0.63749E-02    48   0.230E+00    0.218E+00
RMM:  10    -0.205506211491E+02   -0.44008E-02   -0.53609E-03    50   0.938E-01    0.217E+00
RMM:  11    -0.204689250811E+02    0.81696E-01   -0.12549E-01    49   0.358E+00    0.139E+00
RMM:  12    -0.204903753689E+02   -0.21450E-01   -0.46473E-01    48   0.612E+00    0.252E+00
RMM:  13    -0.205780261498E+02   -0.87651E-01   -0.10815E-01    50   0.338E+00    0.354E+00
RMM:  14    -0.205708625386E+02    0.71636E-02   -0.15735E-02    54   0.113E+00    0.354E+00
RMM:  15    -0.205602292318E+02    0.10633E-01   -0.28880E-02    48   0.164E+00    0.253E+00
RMM:  16    -0.205578114012E+02    0.24178E-02   -0.10271E-01    49   0.297E+00    0.820E-01
RMM:  17    -0.206067475930E+02   -0.48936E-01   -0.24069E-02    48   0.180E+00    0.155E+00
RMM:  18    -0.206122439676E+02   -0.54964E-02   -0.31294E-02    48   0.180E+00    0.803E-01
RMM:  19    -0.206283512378E+02   -0.16107E-01   -0.86913E-03    51   0.105E+00    0.665E-01
RMM:  20    -0.206369718716E+02   -0.86206E-02   -0.87041E-03    49   0.914E-01    0.763E-01
RMM:  21    -0.206401562158E+02   -0.31843E-02   -0.17022E-03    50   0.507E-01    0.828E-01
RMM:  22    -0.206389633825E+02    0.11928E-02   -0.45202E-04    49   0.246E-01    0.794E-01
RMM:  23    -0.206382279218E+02    0.73546E-03   -0.12915E-04    48   0.138E-01    0.784E-01
RMM:  24    -0.206396762577E+02   -0.14483E-02   -0.47142E-04    48   0.234E-01    0.767E-01
RMM:  25    -0.206392943363E+02    0.38192E-03   -0.40064E-02    48   0.201E+00    0.372E-01
RMM:  26    -0.206479103208E+02   -0.86160E-02   -0.22999E-03    48   0.777E-01    0.371E-01
RMM:  27    -0.206310402368E+02    0.16870E-01   -0.26429E-02    48   0.178E+00    0.360E-01
RMM:  28    -0.206371155171E+02   -0.60753E-02   -0.30384E-03    48   0.760E-01    0.316E-01
RMM:  29    -0.206414320586E+02   -0.43165E-02   -0.76710E-04    48   0.274E-01    0.304E-01
RMM:  30    -0.206343819679E+02    0.70501E-02   -0.49003E-03    48   0.735E-01    0.367E-01
RMM:  31    -0.206307716591E+02    0.36103E-02   -0.48346E-03    48   0.770E-01    0.414E-01
RMM:  32    -0.206331026384E+02   -0.23310E-02   -0.71427E-04    52   0.301E-01    0.397E-01
RMM:  33    -0.206334401223E+02   -0.33748E-03   -0.15462E-04    54   0.937E-02    0.389E-01
RMM:  34    -0.206337187068E+02   -0.27858E-03   -0.71735E-05    49   0.874E-02    0.380E-01
RMM:  35    -0.206315975712E+02    0.21211E-02   -0.68014E-04    48   0.261E-01    0.399E-01
RMM:  36    -0.206302154988E+02    0.13821E-02   -0.50340E-04    50   0.253E-01    0.412E-01
RMM:  37    -0.206351609204E+02   -0.49454E-02   -0.14550E-03    48   0.406E-01    0.381E-01
RMM:  38    -0.206394260144E+02   -0.42651E-02   -0.41203E-03    48   0.680E-01    0.340E-01
RMM:  39    -0.206383669897E+02    0.10590E-02   -0.26770E-04    49   0.251E-01    0.351E-01
RMM:  40    -0.206379800638E+02    0.38693E-03   -0.62292E-05    46   0.529E-02    0.355E-01
RMM:  41    -0.206399579903E+02   -0.19779E-02   -0.50405E-04    48   0.235E-01    0.339E-01
RMM:  42    -0.206436301607E+02   -0.36722E-02   -0.44484E-03    48   0.727E-01    0.285E-01
RMM:  43    -0.206465048568E+02   -0.28747E-02   -0.24755E-02    48   0.165E+00    0.276E-01
RMM:  44    -0.206517134594E+02   -0.52086E-02   -0.73591E-03    50   0.103E+00    0.313E-01
RMM:  45    -0.206524917474E+02   -0.77829E-03   -0.11856E-03    56   0.280E-01    0.326E-01
RMM:  46    -0.206522339906E+02    0.25776E-03   -0.49595E-05    53   0.786E-02    0.329E-01
RMM:  47    -0.206525102510E+02   -0.27626E-03   -0.63553E-05    52   0.691E-02    0.338E-01
RMM:  48    -0.206542550803E+02   -0.17448E-02   -0.19105E-03    48   0.450E-01    0.375E-01
RMM:  49    -0.206525074910E+02    0.17476E-02   -0.48033E-04    48   0.282E-01    0.388E-01
RMM:  50    -0.206519910130E+02    0.51648E-03   -0.26825E-04    48   0.161E-01    0.386E-01
RMM:  51    -0.206517200731E+02    0.27094E-03   -0.16329E-04    51   0.130E-01    0.392E-01
RMM:  52    -0.206545799901E+02   -0.28599E-02   -0.15829E-02    48   0.130E+00    0.518E-01
RMM:  53    -0.206557690294E+02   -0.11890E-02   -0.70742E-04    48   0.475E-01    0.516E-01
RMM:  54    -0.206513215330E+02    0.44475E-02   -0.38315E-03    48   0.683E-01    0.451E-01
RMM:  55    -0.206393627605E+02    0.11959E-01   -0.22269E-02    48   0.156E+00    0.396E-01
RMM:  56    -0.206378051484E+02    0.15576E-02   -0.13870E-02    53   0.130E+00    0.385E-01
RMM:  57    -0.206419913032E+02   -0.41862E-02   -0.21437E-03    52   0.445E-01    0.383E-01
RMM:  58    -0.206406297714E+02    0.13615E-02   -0.14562E-03    50   0.376E-01    0.395E-01
RMM:  59    -0.206417807873E+02   -0.11510E-02   -0.14574E-04    49   0.164E-01    0.391E-01
RMM:  60    -0.206421031744E+02   -0.32239E-03   -0.33670E-05    49   0.422E-02    0.389E-01
RMM:  61    -0.206423165448E+02   -0.21337E-03   -0.48582E-06    43   0.291E-02    0.387E-01
RMM:  62    -0.206435759058E+02   -0.12594E-02   -0.29620E-04    48   0.181E-01    0.378E-01
RMM:  63    -0.206427951719E+02    0.78073E-03   -0.47078E-05    48   0.919E-02    0.384E-01
RMM:  64    -0.206415810086E+02    0.12142E-02   -0.25613E-04    48   0.163E-01    0.392E-01
RMM:  65    -0.206427696172E+02   -0.11886E-02   -0.90879E-05    48   0.113E-01    0.383E-01
RMM:  66    -0.206408167933E+02    0.19528E-02   -0.46079E-04    48   0.238E-01    0.401E-01
RMM:  67    -0.206392393879E+02    0.15774E-02   -0.64244E-04    48   0.281E-01    0.416E-01
RMM:  68    -0.206380287620E+02    0.12106E-02   -0.67725E-04    54   0.270E-01    0.433E-01
RMM:  69    -0.206386734618E+02   -0.64470E-03   -0.47692E-05    52   0.811E-02    0.432E-01
RMM:  70    -0.206389938548E+02   -0.32039E-03   -0.18024E-05    48   0.489E-02    0.424E-01
RMM:  71    -0.206401776554E+02   -0.11838E-02   -0.20381E-04    48   0.155E-01    0.406E-01
RMM:  72    -0.206427108028E+02   -0.25331E-02   -0.16900E-03    48   0.433E-01    0.365E-01
RMM:  73    -0.206447523167E+02   -0.20415E-02   -0.23652E-03    48   0.532E-01    0.332E-01
RMM:  74    -0.206460974161E+02   -0.13451E-02   -0.15438E-03    54   0.411E-01    0.325E-01
RMM:  75    -0.206481983857E+02   -0.21010E-02   -0.31277E-03    48   0.558E-01    0.307E-01
RMM:  76    -0.206494074134E+02   -0.12090E-02   -0.12699E-03    50   0.422E-01    0.306E-01
RMM:  77    -0.206454958934E+02    0.39115E-02   -0.16220E-03    48   0.452E-01    0.334E-01
RMM:  78    -0.206464511569E+02   -0.95526E-03   -0.92989E-05    48   0.148E-01    0.329E-01
RMM:  79    -0.206468539922E+02   -0.40284E-03   -0.14359E-05    44   0.472E-02    0.324E-01
RMM:  80    -0.206470638072E+02   -0.20981E-03   -0.65734E-06    43   0.309E-02    0.322E-01
RMM:  81    -0.206473844314E+02   -0.32062E-03   -0.28955E-05    47   0.568E-02    0.318E-01
RMM:  82    -0.206326285472E+02    0.14756E-01   -0.18646E-01    48   0.440E+00    0.658E-01
RMM:  83    -0.206582121358E+02   -0.25584E-01   -0.98161E-03    48   0.163E+00    0.632E-01
RMM:  84    -0.206598204170E+02   -0.16083E-02   -0.46538E-03    53   0.454E-01    0.672E-01
RMM:  85    -0.206595797093E+02    0.24071E-03   -0.22172E-04    49   0.222E-01    0.665E-01
RMM:  86    -0.206584559830E+02    0.11237E-02   -0.13010E-03    48   0.388E-01    0.600E-01
RMM:  87    -0.206561763301E+02    0.22797E-02   -0.36723E-02    48   0.195E+00    0.897E-01
RMM:  88    -0.206582792857E+02   -0.21030E-02   -0.76075E-03    49   0.106E+00    0.105E+00
RMM:  89    -0.206589972654E+02   -0.71798E-03   -0.11475E-03    55   0.309E-01    0.105E+00
RMM:  90    -0.206580285088E+02    0.96876E-03   -0.46874E-03    48   0.740E-01    0.906E-01
RMM:  91    -0.206590640440E+02   -0.10355E-02   -0.65667E-04    48   0.342E-01    0.892E-01
RMM:  92    -0.206601111227E+02   -0.10471E-02   -0.41349E-04    48   0.247E-01    0.918E-01
RMM:  93    -0.206599961509E+02    0.11497E-03   -0.52138E-05    48   0.852E-02    0.899E-01
RMM:  94    -0.206600022715E+02   -0.61207E-05   -0.26593E-04    48   0.166E-01    0.862E-01
RMM:  95    -0.206600870461E+02   -0.84775E-04   -0.45379E-04    48   0.235E-01    0.817E-01
RMM:  96    -0.206593407295E+02    0.74632E-03   -0.27042E-03    48   0.543E-01    0.712E-01
RMM:  97    -0.206600302494E+02   -0.68952E-03   -0.93557E-04    49   0.380E-01    0.637E-01
RMM:  98    -0.206604606039E+02   -0.43035E-03   -0.15927E-04    55   0.108E-01    0.629E-01
RMM:  99    -0.206605941070E+02   -0.13350E-03   -0.34200E-05    48   0.544E-02    0.610E-01
RMM: 100    -0.206597685284E+02    0.82558E-03   -0.13016E-03    48   0.366E-01
   2 F= -.20698851E+02 E0= -.20698847E+02  d E =-.669923E+00  mag=     1.0012
       N       E                     dE             d eps       ncg     rms          rms(c)
DAV:   1    -0.207070355570E+02   -0.46441E-01   -0.21208E+00    48   0.189E+01    0.146E+00
RMM:   2    -0.207750422400E+02   -0.68007E-01   -0.16154E-01    50   0.408E+00    0.534E+00
RMM:   3    -0.206741068059E+02    0.10094E+00   -0.47684E-02    50   0.180E+00    0.821E-01
RMM:   4    -0.206985605141E+02   -0.24454E-01   -0.14627E-02    49   0.138E+00    0.811E-01
RMM:   5    -0.206998514795E+02   -0.12910E-02   -0.17057E-03    54   0.442E-01    0.832E-01
RMM:   6    -0.206878936675E+02    0.11958E-01   -0.77146E-03    48   0.952E-01    0.870E-01
RMM:   7    -0.206838953632E+02    0.39983E-02   -0.91567E-03    51   0.101E+00    0.735E-01
RMM:   8    -0.206783572215E+02    0.55381E-02   -0.21899E-02    49   0.147E+00    0.733E-01
RMM:   9    -0.206868461117E+02   -0.84889E-02   -0.16847E-03    48   0.647E-01    0.739E-01
RMM:  10    -0.206875658827E+02   -0.71977E-03   -0.49802E-04    49   0.224E-01    0.689E-01
RMM:  11    -0.206843768373E+02    0.31890E-02   -0.25239E-03    48   0.493E-01    0.628E-01
RMM:  12    -0.206822123705E+02    0.21645E-02   -0.22892E-03    51   0.482E-01    0.612E-01
RMM:  13    -0.206767708304E+02    0.54415E-02   -0.57797E-03    48   0.788E-01    0.694E-01
RMM:  14    -0.206858414764E+02   -0.90706E-02   -0.39943E-03    48   0.733E-01    0.623E-01
RMM:  15    -0.206899247089E+02   -0.40832E-02   -0.10106E-02    48   0.101E+00    0.558E-01
RMM:  16    -0.206926502342E+02   -0.27255E-02   -0.11704E-02    48   0.113E+00    0.494E-01
RMM:  17    -0.206951923470E+02   -0.25421E-02   -0.36439E-03    51   0.673E-01    0.485E-01
RMM:  18    -0.206752582730E+02    0.19934E-01   -0.27705E-02    48   0.180E+00    0.509E-01
RMM:  19    -0.206775621074E+02   -0.23038E-02   -0.82143E-03    48   0.109E+00    0.537E-01
RMM:  20    -0.206906603223E+02   -0.13098E-01   -0.81305E-03    48   0.104E+00    0.456E-01
RMM:  21    -0.206844765270E+02    0.61838E-02   -0.92184E-02    48   0.314E+00    0.493E-01
RMM:  22    -0.206883505821E+02   -0.38741E-02   -0.78881E-02    49   0.309E+00    0.878E-01
RMM:  23    -0.206997270111E+02   -0.11376E-01   -0.28353E-02    55   0.184E+00    0.125E+00
RMM:  24    -0.207036794056E+02   -0.39524E-02   -0.19830E-03    54   0.457E-01    0.126E+00
RMM:  25    -0.207028058446E+02    0.87356E-03   -0.31640E-03    48   0.565E-01    0.148E+00
RMM:  26    -0.207043007989E+02   -0.14950E-02   -0.79087E-04    48   0.356E-01    0.139E+00
RMM:  27    -0.207049255545E+02   -0.62476E-03   -0.28962E-04    52   0.177E-01    0.142E+00
RMM:  28    -0.207036268315E+02    0.12987E-02   -0.99738E-04    48   0.341E-01    0.153E+00
RMM:  29    -0.207037206787E+02   -0.93847E-04   -0.38206E-04    48   0.221E-01    0.172E+00
RMM:  30    -0.207040732190E+02   -0.35254E-03   -0.68265E-04    48   0.273E-01    0.148E+00
RMM:  31    -0.207051421930E+02   -0.10690E-02   -0.21396E-03    48   0.501E-01    0.180E+00
RMM:  32    -0.207013617507E+02    0.37804E-02   -0.72149E-03    48   0.917E-01    0.222E+00
RMM:  33    -0.207008905053E+02    0.47125E-03   -0.78404E-04    48   0.393E-01    0.193E+00
RMM:  34    -0.207043324986E+02   -0.34420E-02   -0.14097E-02    48   0.125E+00    0.101E+00
RMM:  35    -0.207096385525E+02   -0.53061E-02   -0.30418E-03    48   0.675E-01    0.877E-01
RMM:  36    -0.207103589531E+02   -0.72040E-03   -0.80283E-04    54   0.293E-01    0.762E-01
RMM:  37    -0.207104771940E+02   -0.11824E-03   -0.47495E-03    48   0.719E-01    0.473E-01
RMM:  38    -0.207113637946E+02   -0.88660E-03   -0.16693E-03    48   0.491E-01    0.610E-01
RMM:  39    -0.207103049484E+02    0.10588E-02   -0.17467E-03    49   0.486E-01    0.517E-01
RMM:  40    -0.207095325864E+02    0.77236E-03   -0.13812E-03    52   0.404E-01    0.551E-01
RMM:  41    -0.207096371726E+02   -0.10459E-03   -0.26155E-04    52   0.174E-01    0.586E-01
RMM:  42    -0.207106513268E+02   -0.10142E-02   -0.26936E-04    48   0.187E-01    0.529E-01
RMM:  43    -0.207117931289E+02   -0.11418E-02   -0.97318E-04    49   0.342E-01    0.466E-01
RMM:  44    -0.207117651999E+02    0.27929E-04   -0.45620E-05    48   0.114E-01    0.474E-01
RMM:  45    -0.207118582542E+02   -0.93054E-04   -0.26157E-04    48   0.167E-01    0.519E-01
RMM:  46    -0.207120466431E+02   -0.18839E-03   -0.54346E-04    49   0.247E-01    0.564E-01
RMM:  47    -0.207121227602E+02   -0.76117E-04   -0.28247E-04    48   0.197E-01    0.540E-01
RMM:  48    -0.207125241357E+02   -0.40138E-03   -0.54740E-04    48   0.251E-01    0.487E-01
RMM:  49    -0.207132941830E+02   -0.77005E-03   -0.34366E-04    52   0.205E-01    0.482E-01
RMM:  50    -0.207127528698E+02    0.54131E-03   -0.94318E-05    48   0.124E-01    0.483E-01
RMM:  51    -0.207104727209E+02    0.22801E-02   -0.19021E-03    48   0.475E-01    0.513E-01
RMM:  52    -0.207111049318E+02   -0.63221E-03   -0.24952E-04    49   0.208E-01    0.521E-01
RMM:  53    -0.207101743308E+02    0.93060E-03   -0.68701E-04    50   0.257E-01    0.570E-01
RMM:  54    -0.207112157110E+02   -0.10414E-02   -0.21912E-04    48   0.194E-01    0.532E-01
RMM:  55    -0.207121803187E+02   -0.96461E-03   -0.65771E-04    48   0.278E-01    0.469E-01
RMM:  56    -0.207123781004E+02   -0.19778E-03   -0.44610E-04    49   0.228E-01    0.502E-01
RMM:  57    -0.207125066550E+02   -0.12855E-03   -0.59064E-04    48   0.281E-01    0.422E-01
RMM:  58    -0.207111912119E+02    0.13154E-02   -0.83494E-04    48   0.318E-01    0.510E-01
RMM:  59    -0.207125564605E+02   -0.13652E-02   -0.17568E-03    48   0.471E-01    0.442E-01
RMM:  60    -0.207146174870E+02   -0.20610E-02   -0.51298E-03    49   0.779E-01    0.709E-01
RMM:  61    -0.207148892785E+02   -0.27179E-03   -0.28645E-04    48   0.274E-01    0.640E-01
RMM:  62    -0.207119579007E+02    0.29314E-02   -0.27785E-03    48   0.583E-01    0.498E-01
RMM:  63    -0.207124568132E+02   -0.49891E-03   -0.66151E-04    49   0.321E-01    0.487E-01
RMM:  64    -0.207095102044E+02    0.29466E-02   -0.38579E-03    49   0.650E-01    0.617E-01
RMM:  65    -0.207101786428E+02   -0.66844E-03   -0.36337E-04    49   0.274E-01    0.633E-01
RMM:  66    -0.207108720194E+02   -0.69338E-03   -0.22733E-04    48   0.189E-01    0.592E-01
RMM:  67    -0.207102675527E+02    0.60447E-03   -0.56412E-04    48   0.249E-01    0.640E-01
RMM:  68    -0.207105816410E+02   -0.31409E-03   -0.33846E-05    47   0.939E-02    0.628E-01
RMM:  69    -0.207101487621E+02    0.43288E-03   -0.16671E-04    48   0.149E-01    0.660E-01
RMM:  70    -0.207092998040E+02    0.84896E-03   -0.35560E-04    50   0.206E-01    0.716E-01
RMM:  71    -0.207096089320E+02   -0.30913E-03   -0.24744E-05    48   0.781E-02    0.696E-01
RMM:  72    -0.207094086604E+02    0.20027E-03   -0.10550E-04    49   0.107E-01    0.685E-01
RMM:  73    -0.207088173312E+02    0.59133E-03   -0.28744E-04    49   0.182E-01    0.685E-01
RMM:  74    -0.207090177838E+02   -0.20045E-03   -0.68891E-05    48   0.110E-01    0.699E-01
RMM:  75    -0.207100730040E+02   -0.10552E-02   -0.12099E-03    49   0.374E-01    0.612E-01
RMM:  76    -0.207115101639E+02   -0.14372E-02   -0.33980E-03    50   0.624E-01    0.497E-01
RMM:  77    -0.207168674581E+02   -0.53573E-02   -0.24467E-02    49   0.167E+00    0.237E+00
RMM:  78    -0.207600933055E+02   -0.43226E-01   -0.22044E-02    52   0.165E+00    0.727E+00
RMM:  79    -0.208190761964E+02   -0.58983E-01   -0.34083E-02    48   0.202E+00    0.947E+00
RMM:  80    -0.207395818863E+02    0.79494E-01   -0.17150E-02    48   0.151E+00    0.901E+00
RMM:  81    -0.207684654079E+02   -0.28884E-01   -0.16353E-03    48   0.565E-01    0.938E+00
RMM:  82    -0.207994771694E+02   -0.31012E-01   -0.47882E-03    49   0.702E-01    0.939E+00
RMM:  83    -0.207994285489E+02    0.48620E-04   -0.35146E-04    49   0.267E-01    0.939E+00
RMM:  84    -0.208049101470E+02   -0.54816E-02   -0.28923E-04    52   0.129E-01    0.938E+00
RMM:  85    -0.209047329512E+02   -0.99823E-01   -0.34646E-02    49   0.197E+00    0.903E+00
RMM:  86    -0.208897298917E+02    0.15003E-01   -0.12619E-03    48   0.555E-01    0.915E+00
RMM:  87    -0.209100198426E+02   -0.20290E-01   -0.66935E-03    48   0.828E-01    0.914E+00
RMM:  88    -0.209225504764E+02   -0.12531E-01   -0.21649E-03    50   0.566E-01    0.912E+00
RMM:  89    -0.209233133185E+02   -0.76284E-03   -0.25818E-04    57   0.114E-01    0.912E+00
RMM:  90    -0.209254360422E+02   -0.21227E-02   -0.67204E-05    48   0.851E-02    0.913E+00
RMM:  91    -0.208413446522E+02    0.84091E-01   -0.29153E-02    48   0.181E+00    0.955E+00
RMM:  92    -0.208141446370E+02    0.27200E-01   -0.47678E-03    49   0.875E-01    0.970E+00
RMM:  93    -0.208476207603E+02   -0.33476E-01   -0.22446E-03    48   0.532E-01    0.960E+00
RMM:  94    -0.208571984449E+02   -0.95777E-02   -0.52704E-04    48   0.277E-01    0.959E+00
RMM:  95    -0.208622301493E+02   -0.50317E-02   -0.17565E-04    49   0.138E-01    0.951E+00
RMM:  96    -0.208676082019E+02   -0.53781E-02   -0.17526E-03    48   0.439E-01    0.963E+00
RMM:  97    -0.208845935982E+02   -0.16985E-01   -0.35541E-03    48   0.655E-01    0.965E+00
RMM:  98    -0.209014645720E+02   -0.16871E-01   -0.25548E-03    50   0.577E-01    0.960E+00
RMM:  99    -0.208937944378E+02    0.76701E-02   -0.30927E-04    48   0.208E-01    0.960E+00
RMM: 100    -0.208982306182E+02   -0.44362E-02   -0.45294E-04    48   0.226E-01
   3 F= -.20937842E+02 E0= -.20937841E+02  d E =-.908914E+00  mag=     1.2473
       N       E                     dE             d eps       ncg     rms          rms(c)
DAV:   1    -0.209311227654E+02   -0.37328E-01   -0.59195E-01    48   0.105E+01    0.989E+00
RMM:   2    -0.204697064428E+02    0.46142E+00   -0.86328E+00    51   0.239E+01    0.197E+01
RMM:   3    -0.201935670789E+02    0.27614E+00   -0.23670E+00    49   0.125E+01    0.526E+00
RMM:   4    -0.200334815969E+02    0.16009E+00   -0.39579E-01    50   0.716E+00    0.375E+00
RMM:   5    -0.203732116016E+02   -0.33973E+00   -0.26956E-01    48   0.396E+00    0.262E+00
RMM:   6    -0.207660385376E+02   -0.39283E+00   -0.40132E-01    48   0.525E+00    0.801E-01
RMM:   7    -0.210010500485E+02   -0.23501E+00   -0.80810E-02    52   0.214E+00    0.335E-01
RMM:   8    -0.210517529274E+02   -0.50703E-01   -0.11213E-02    50   0.975E-01    0.189E-01
RMM:   9    -0.210649734633E+02   -0.13221E-01   -0.33229E-03    52   0.463E-01    0.157E-01
RMM:  10    -0.210731140897E+02   -0.81406E-02   -0.16354E-03    49   0.357E-01    0.139E-01
RMM:  11    -0.210774397171E+02   -0.43256E-02   -0.10849E-03    50   0.286E-01    0.144E-01
RMM:  12    -0.210783492394E+02   -0.90952E-03   -0.30980E-04    53   0.164E-01    0.148E-01
RMM:  13    -0.210773616152E+02    0.98762E-03   -0.95820E-04    48   0.296E-01    0.129E-01
RMM:  14    -0.210760656346E+02    0.12960E-02   -0.78287E-03    48   0.775E-01    0.115E-01
RMM:  15    -0.210782901461E+02   -0.22245E-02   -0.19894E-03    48   0.452E-01    0.545E-02
RMM:  16    -0.210809202126E+02   -0.26301E-02   -0.89321E-04    51   0.277E-01    0.274E-02
RMM:  17    -0.210825537459E+02   -0.16335E-02   -0.47330E-04    48   0.176E-01    0.236E-02
RMM:  18    -0.210827871543E+02   -0.23341E-03   -0.57151E-04    50   0.203E-01    0.188E-02
RMM:  19    -0.210831468835E+02   -0.35973E-03   -0.14416E-04    49   0.118E-01    0.104E-02
RMM:  20    -0.210836321503E+02   -0.48527E-03   -0.14230E-04    48   0.867E-02    0.908E-03
RMM:  21    -0.210837871151E+02   -0.15496E-03   -0.48680E-05    49   0.679E-02    0.748E-03
RMM:  22    -0.210838251182E+02   -0.38003E-04   -0.62230E-05    48   0.679E-02    0.572E-03
RMM:  23    -0.210838581269E+02   -0.33009E-04   -0.40858E-05    48   0.557E-02    0.415E-03
RMM:  24    -0.210838932224E+02   -0.35095E-04   -0.66416E-06    40   0.264E-02    0.192E-03
RMM:  25    -0.210839179359E+02   -0.24714E-04   -0.53333E-06    40   0.218E-02    0.136E-03
RMM:  26    -0.210839300768E+02   -0.12141E-04   -0.22186E-06    34   0.123E-02    0.117E-03
RMM:  27    -0.210839367333E+02   -0.66565E-05   -0.86519E-07    29   0.938E-03    0.688E-04
RMM:  28    -0.210839407598E+02   -0.40265E-05   -0.83060E-07    29   0.985E-03    0.612E-04
RMM:  29    -0.210839435747E+02   -0.28149E-05   -0.58470E-07    27   0.848E-03    0.475E-04
RMM:  30    -0.210839448702E+02   -0.12955E-05   -0.40882E-07    26   0.712E-03    0.244E-04
RMM:  31    -0.210839454772E+02   -0.60698E-06   -0.25263E-07    23   0.565E-03
   4 F= -.21123259E+02 E0= -.21123259E+02  d E =-.109433E+01  mag=     3.0000
       N       E                     dE             d eps       ncg     rms          rms(c)
DAV:   1    -0.210990923964E+02   -0.15148E-01   -0.15875E-01    48   0.539E+00    0.351E-01
RMM:   2    -0.210988883959E+02    0.20400E-03   -0.79093E-03    49   0.969E-01    0.527E-01
RMM:   3    -0.210981020762E+02    0.78632E-03   -0.15870E-03    49   0.315E-01    0.990E-02
RMM:   4    -0.210979140623E+02    0.18801E-03   -0.39488E-04    51   0.198E-01    0.552E-02
RMM:   5    -0.210979183760E+02   -0.43137E-05   -0.16478E-04    51   0.115E-01    0.218E-02
RMM:   6    -0.210980821063E+02   -0.16373E-03   -0.33094E-05    51   0.535E-02    0.170E-02
RMM:   7    -0.210981695438E+02   -0.87437E-04   -0.25590E-05    53   0.344E-02    0.887E-03
RMM:   8    -0.210981885464E+02   -0.19003E-04   -0.50209E-06    39   0.224E-02    0.635E-03
RMM:   9    -0.210981986288E+02   -0.10082E-04   -0.18482E-06    33   0.154E-02    0.424E-03
RMM:  10    -0.210982020528E+02   -0.34240E-05   -0.11273E-06    29   0.137E-02    0.362E-03
RMM:  11    -0.210982028984E+02   -0.84565E-06   -0.46375E-07    27   0.802E-03
   5 F= -.21137665E+02 E0= -.21137665E+02  d E =-.110874E+01  mag=     3.0000
       N       E                     dE             d eps       ncg     rms          rms(c)
DAV:   1    -0.211040785396E+02   -0.58765E-02   -0.39582E-02    48   0.269E+00    0.176E-01
RMM:   2    -0.211040280055E+02    0.50534E-04   -0.19942E-03    49   0.484E-01    0.264E-01
RMM:   3    -0.211038263600E+02    0.20165E-03   -0.39390E-04    49   0.157E-01    0.496E-02
RMM:   4    -0.211037824600E+02    0.43900E-04   -0.10228E-04    51   0.100E-01    0.284E-02
RMM:   5    -0.211037719200E+02    0.10540E-04   -0.43182E-05    51   0.593E-02    0.124E-02
RMM:   6    -0.211038216115E+02   -0.49691E-04   -0.85728E-06    44   0.289E-02    0.108E-02
RMM:   7    -0.211038510541E+02   -0.29443E-04   -0.77337E-06    44   0.215E-02    0.916E-03
RMM:   8    -0.211038581054E+02   -0.70513E-05   -0.20102E-06    32   0.167E-02    0.966E-03
RMM:   9    -0.211038527442E+02    0.53612E-05   -0.87854E-07    29   0.141E-02    0.949E-03
RMM:  10    -0.211038449386E+02    0.78057E-05   -0.54039E-06    39   0.223E-02    0.816E-03
RMM:  11    -0.211038388521E+02    0.60865E-05   -0.15506E-05    44   0.344E-02    0.627E-03
RMM:  12    -0.211038233870E+02    0.15465E-04   -0.49331E-05    46   0.635E-02    0.384E-03
RMM:  13    -0.211038593473E+02   -0.35960E-04   -0.34553E-06    35   0.278E-02    0.238E-03
RMM:  14    -0.211038589746E+02    0.37263E-06   -0.52185E-06    39   0.237E-02
   6 F= -.21143396E+02 E0= -.21143396E+02  d E =-.111447E+01  mag=     3.0000
       N       E                     dE             d eps       ncg     rms          rms(c)
DAV:   1    -0.211063854146E+02   -0.25261E-02   -0.99204E-03    48   0.134E+00    0.879E-02
RMM:   2    -0.211063739004E+02    0.11514E-04   -0.50223E-04    49   0.243E-01    0.133E-01
RMM:   3    -0.211063240045E+02    0.49896E-04   -0.98813E-05    49   0.785E-02    0.244E-02
RMM:   4    -0.211063153616E+02    0.86429E-05   -0.25778E-05    51   0.500E-02    0.139E-02
RMM:   5    -0.211063111774E+02    0.41841E-05   -0.10068E-05    44   0.288E-02    0.545E-03
RMM:   6    -0.211063259131E+02   -0.14736E-04   -0.18466E-06    31   0.151E-02    0.431E-03
RMM:   7    -0.211063346104E+02   -0.86973E-05   -0.16465E-06    31   0.124E-02    0.270E-03
RMM:   8    -0.211063369872E+02   -0.23768E-05   -0.72161E-07    28   0.106E-02    0.271E-03
RMM:   9    -0.211063382462E+02   -0.12590E-05   -0.43861E-07    26   0.905E-03    0.242E-03
RMM:  10    -0.211063383446E+02   -0.98339E-07   -0.18990E-07    24   0.586E-03
   7 F= -.21145913E+02 E0= -.21145913E+02  d E =-.111698E+01  mag=     3.0000
       N       E                     dE             d eps       ncg     rms          rms(c)
DAV:   1    -0.211074969606E+02   -0.11587E-02   -0.24769E-03    48   0.673E-01    0.445E-02
RMM:   2    -0.211074931634E+02    0.37972E-05   -0.12839E-04    49   0.122E-01    0.671E-02
RMM:   3    -0.211074792816E+02    0.13882E-04   -0.24787E-05    45   0.395E-02    0.127E-02
RMM:   4    -0.211074778560E+02    0.14255E-05   -0.67326E-06    42   0.268E-02    0.792E-03
RMM:   5    -0.211074756737E+02    0.21823E-05   -0.36469E-06    37   0.189E-02    0.504E-03
RMM:   6    -0.211074802327E+02   -0.45590E-05   -0.98438E-07    29   0.130E-02    0.523E-03
RMM:   7    -0.211074813237E+02   -0.10910E-05   -0.40608E-07    26   0.880E-03    0.531E-03
RMM:   8    -0.211074781182E+02    0.32056E-05   -0.49054E-07    25   0.978E-03    0.496E-03
RMM:   9    -0.211074762791E+02    0.18390E-05   -0.30053E-06    35   0.161E-02    0.398E-03
RMM:  10    -0.211074765356E+02   -0.25651E-06   -0.44462E-06    37   0.186E-02
   8 F= -.21147070E+02 E0= -.21147070E+02  d E =-.111814E+01  mag=     3.0000
       N       E                     dE             d eps       ncg     rms          rms(c)
DAV:   1    -0.211080321053E+02   -0.55583E-03   -0.64223E-04    48   0.338E-01    0.225E-02
RMM:   2    -0.211080350477E+02   -0.29424E-05   -0.33086E-05    48   0.623E-02    0.339E-02
RMM:   3    -0.211080322614E+02    0.27863E-05   -0.61719E-06    40   0.194E-02    0.627E-03
RMM:   4    -0.211080328746E+02   -0.61326E-06   -0.14213E-06    29   0.138E-02    0.375E-03
RMM:   5    -0.211080331488E+02   -0.27416E-06   -0.85091E-07    27   0.110E-02
   9 F= -.21147636E+02 E0= -.21147636E+02  d E =-.111871E+01  mag=     3.0000
       N       E                     dE             d eps       ncg     rms          rms(c)
DAV:   1    -0.211083049062E+02   -0.27203E-03   -0.15383E-04    48   0.168E-01    0.116E-02
RMM:   2    -0.211083049029E+02    0.32306E-08   -0.88061E-06    42   0.318E-02    0.181E-02
RMM:   3    -0.211083041536E+02    0.74932E-06   -0.16009E-06    28   0.122E-02    0.350E-03
RMM:   4    -0.211083046788E+02   -0.52516E-06   -0.48678E-07    27   0.893E-03    0.257E-03
RMM:   5    -0.211083051075E+02   -0.42870E-06   -0.35724E-07    25   0.666E-03
  10 F= -.21147912E+02 E0= -.21147912E+02  d E =-.111898E+01  mag=     3.0000
       N       E                     dE             d eps       ncg     rms          rms(c)
DAV:   1    -0.214748769923E+02   -0.36657E+00   -0.98579E+01    48   0.133E+02    0.623E+00
RMM:   2    -0.218622697275E+02   -0.38739E+00   -0.38458E+00    48   0.214E+01    0.101E+01
RMM:   3    -0.212097857512E+02    0.65248E+00   -0.75739E-01    50   0.717E+00    0.355E+00
RMM:   4    -0.211224855619E+02    0.87300E-01   -0.27669E-01    51   0.522E+00    0.196E+00
RMM:   5    -0.214169482194E+02   -0.29446E+00   -0.14562E-01    48   0.349E+00    0.222E+00
RMM:   6    -0.215016797689E+02   -0.84732E-01   -0.92918E-02    55   0.278E+00    0.105E+00
RMM:   7    -0.215113741291E+02   -0.96944E-02   -0.18668E-02    54   0.130E+00    0.649E-01
RMM:   8    -0.215474586634E+02   -0.36085E-01   -0.82600E-03    49   0.804E-01    0.364E-01
RMM:   9    -0.215556071154E+02   -0.81485E-02   -0.25549E-03    51   0.551E-01    0.156E-01
RMM:  10    -0.215635888364E+02   -0.79817E-02   -0.11037E-03    50   0.266E-01    0.127E-01
RMM:  11    -0.215671902822E+02   -0.36014E-02   -0.10161E-03    50   0.252E-01    0.799E-02
RMM:  12    -0.215680864507E+02   -0.89617E-03   -0.28813E-04    53   0.172E-01    0.742E-02
RMM:  13    -0.215676432140E+02    0.44324E-03   -0.75934E-05    50   0.909E-02    0.738E-02
RMM:  14    -0.215671869026E+02    0.45631E-03   -0.75687E-04    48   0.254E-01    0.567E-02
RMM:  15    -0.215673836828E+02   -0.19678E-03   -0.12990E-03    48   0.341E-01    0.312E-02
RMM:  16    -0.215679814166E+02   -0.59773E-03   -0.67823E-04    49   0.270E-01    0.189E-02
RMM:  17    -0.215685811673E+02   -0.59975E-03   -0.11982E-04    51   0.107E-01    0.936E-03
RMM:  18    -0.215688226363E+02   -0.24147E-03   -0.13455E-04    48   0.106E-01    0.709E-03
RMM:  19    -0.215689695001E+02   -0.14686E-03   -0.74060E-05    50   0.752E-02    0.611E-03
RMM:  20    -0.215690582358E+02   -0.88736E-04   -0.42999E-05    50   0.533E-02    0.427E-03
RMM:  21    -0.215690939353E+02   -0.35700E-04   -0.95878E-06    41   0.299E-02    0.304E-03
RMM:  22    -0.215690955612E+02   -0.16258E-05   -0.11503E-05    44   0.324E-02    0.229E-03
RMM:  23    -0.215691062556E+02   -0.10694E-04   -0.78489E-06    43   0.270E-02    0.145E-03
RMM:  24    -0.215691172337E+02   -0.10978E-04   -0.23505E-06    35   0.163E-02    0.973E-04
RMM:  25    -0.215691223629E+02   -0.51292E-05   -0.60220E-07    28   0.109E-02    0.685E-04
RMM:  26    -0.215691239612E+02   -0.15983E-05   -0.94052E-07    29   0.109E-02    0.609E-04
RMM:  27    -0.215691267981E+02   -0.28369E-05   -0.12372E-06    30   0.108E-02    0.559E-04
RMM:  28    -0.215691291244E+02   -0.23263E-05   -0.36779E-07    26   0.935E-03    0.250E-04
RMM:  29    -0.215691297166E+02   -0.59221E-06   -0.28543E-07    26   0.562E-03
  11 F= -.21604881E+02 E0= -.21604864E+02  d E =-.456969E+00  mag=     2.9998
       N       E                     dE             d eps       ncg     rms          rms(c)
DAV:   1    -0.187920195909E+02    0.27771E+01   -0.93044E+02    48   0.462E+02    0.371E+01
RMM:   2    -0.208270331204E+02   -0.20350E+01   -0.48681E+01    48   0.746E+01    0.848E+00
RMM:   3    -0.214912507852E+02   -0.66422E+00   -0.46359E+00    50   0.333E+01    0.469E+00
RMM:   4    -0.218623955755E+02   -0.37114E+00   -0.72101E-01    55   0.860E+00    0.315E+00
RMM:   5    -0.221660666906E+02   -0.30367E+00   -0.23555E-01    52   0.566E+00    0.173E+00
RMM:   6    -0.222404961493E+02   -0.74429E-01   -0.74182E-02    54   0.320E+00    0.561E-01
RMM:   7    -0.222569336610E+02   -0.16438E-01   -0.12192E-02    55   0.111E+00    0.251E-01
RMM:   8    -0.222620848742E+02   -0.51512E-02   -0.38402E-03    51   0.648E-01    0.139E-01
RMM:   9    -0.222644907353E+02   -0.24059E-02   -0.11593E-03    55   0.345E-01    0.784E-02
RMM:  10    -0.222667004215E+02   -0.22097E-02   -0.47412E-04    50   0.230E-01    0.436E-02
RMM:  11    -0.222684346923E+02   -0.17343E-02   -0.37852E-04    52   0.134E-01    0.246E-02
RMM:  12    -0.222692518780E+02   -0.81719E-03   -0.15940E-04    52   0.997E-02    0.169E-02
RMM:  13    -0.222700221065E+02   -0.77023E-03   -0.23271E-04    51   0.748E-02    0.947E-03
RMM:  14    -0.222702546616E+02   -0.23256E-03   -0.10199E-04    50   0.640E-02    0.706E-03
RMM:  15    -0.222703315577E+02   -0.76896E-04   -0.34185E-05    47   0.329E-02    0.427E-03
RMM:  16    -0.222703907222E+02   -0.59164E-04   -0.24512E-05    43   0.232E-02    0.415E-03
RMM:  17    -0.222704187790E+02   -0.28057E-04   -0.83409E-06    35   0.162E-02    0.318E-03
RMM:  18    -0.222704491576E+02   -0.30379E-04   -0.55828E-06    36   0.131E-02    0.123E-03
RMM:  19    -0.222704731451E+02   -0.23987E-04   -0.32032E-06    37   0.135E-02    0.130E-03
RMM:  20    -0.222704816788E+02   -0.85337E-05   -0.86323E-07    31   0.130E-02    0.926E-04
RMM:  21    -0.222704878671E+02   -0.61884E-05   -0.90160E-07    30   0.102E-02    0.528E-04
RMM:  22    -0.222704908122E+02   -0.29451E-05   -0.48715E-07    26   0.940E-03    0.253E-04
RMM:  23    -0.222704933852E+02   -0.25730E-05   -0.39461E-07    27   0.719E-03    0.323E-04
RMM:  24    -0.222704941494E+02   -0.76415E-06   -0.21968E-07    23   0.780E-03
  12 F= -.22297153E+02 E0= -.22297153E+02  d E =-.114924E+01  mag=     3.0000
       N       E                     dE             d eps       ncg     rms          rms(c)
DAV:   1    -0.224085942120E+02   -0.13810E+00   -0.45626E+02    84   0.285E+02    0.180E+01
RMM:   2    -0.208432565124E+02    0.15653E+01   -0.21672E+01    50   0.420E+01    0.190E+01
RMM:   3    -0.207578802762E+02    0.85376E-01   -0.64368E+00    50   0.216E+01    0.111E+01
RMM:   4    -0.207217547294E+02    0.36126E-01   -0.15309E+00    50   0.136E+01    0.636E+00
RMM:   5    -0.212083436919E+02   -0.48659E+00   -0.84887E-01    54   0.716E+00    0.307E+00
RMM:   6    -0.216970538984E+02   -0.48871E+00   -0.19891E-01    49   0.442E+00    0.193E+00
RMM:   7    -0.219694874125E+02   -0.27243E+00   -0.28337E-01    50   0.508E+00    0.145E+00
RMM:   8    -0.219896200746E+02   -0.20133E-01   -0.74597E-02    50   0.311E+00    0.109E+00
RMM:   9    -0.220547848670E+02   -0.65165E-01   -0.34050E-02    52   0.151E+00    0.581E-01
RMM:  10    -0.220774200218E+02   -0.22635E-01   -0.11426E-02    51   0.984E-01    0.441E-01
RMM:  11    -0.220924488863E+02   -0.15029E-01   -0.10727E-02    53   0.885E-01    0.437E-01
RMM:  12    -0.220936924576E+02   -0.12436E-02   -0.80088E-04    52   0.357E-01    0.450E-01
RMM:  13    -0.221008429083E+02   -0.71505E-02   -0.87356E-03    52   0.732E-01    0.536E-01
RMM:  14    -0.220907488082E+02    0.10094E-01   -0.27857E-02    52   0.147E+00    0.430E-01
RMM:  15    -0.220957560941E+02   -0.50073E-02   -0.89240E-03    51   0.935E-01    0.411E-01
RMM:  16    -0.221004802498E+02   -0.47242E-02   -0.99869E-04    54   0.354E-01    0.405E-01
RMM:  17    -0.220967259991E+02    0.37543E-02   -0.33249E-03    48   0.520E-01    0.410E-01
RMM:  18    -0.220997703772E+02   -0.30444E-02   -0.39494E-04    48   0.275E-01    0.407E-01
RMM:  19    -0.221054796024E+02   -0.57092E-02   -0.15751E-02    48   0.118E+00    0.443E-01
RMM:  20    -0.219633884402E+02    0.14209E+00   -0.41362E-01    48   0.601E+00    0.128E+00
RMM:  21    -0.220861736355E+02   -0.12279E+00   -0.98198E-02    48   0.313E+00    0.310E-01
RMM:  22    -0.220985420759E+02   -0.12368E-01   -0.14785E-02    50   0.137E+00    0.303E-01
RMM:  23    -0.221086022060E+02   -0.10060E-01   -0.79355E-02    48   0.256E+00    0.436E-01
RMM:  24    -0.221559438746E+02   -0.47342E-01   -0.11192E-01    50   0.333E+00    0.150E+00
RMM:  25    -0.221753636425E+02   -0.19420E-01   -0.11266E-02    53   0.113E+00    0.165E+00
RMM:  26    -0.221703241131E+02    0.50395E-02   -0.87980E-04    50   0.284E-01    0.159E+00
RMM:  27    -0.221268455305E+02    0.43479E-01   -0.25559E-02    48   0.151E+00    0.899E-01
RMM:  28    -0.221141708155E+02    0.12675E-01   -0.20297E-02    52   0.143E+00    0.546E-01
RMM:  29    -0.221226387204E+02   -0.84679E-02   -0.15348E-03    51   0.449E-01    0.552E-01
RMM:  30    -0.221035152855E+02    0.19123E-01   -0.22279E-02    48   0.139E+00    0.430E-01
RMM:  31    -0.221029767061E+02    0.53858E-03   -0.11968E-02    51   0.122E+00    0.405E-01
RMM:  32    -0.221037336506E+02   -0.75694E-03   -0.61210E-03    53   0.651E-01    0.398E-01
RMM:  33    -0.221055920701E+02   -0.18584E-02   -0.28230E-04    50   0.226E-01    0.395E-01
RMM:  34    -0.221031105099E+02    0.24816E-02   -0.13975E-03    48   0.337E-01    0.429E-01
RMM:  35    -0.221023232334E+02    0.78728E-03   -0.55688E-04    50   0.266E-01    0.435E-01
RMM:  36    -0.221012779959E+02    0.10452E-02   -0.52596E-04    53   0.189E-01    0.447E-01
RMM:  37    -0.221037894904E+02   -0.25115E-02   -0.13573E-03    48   0.376E-01    0.406E-01
RMM:  38    -0.221078503531E+02   -0.40609E-02   -0.12453E-02    50   0.109E+00    0.378E-01
RMM:  39    -0.221167124230E+02   -0.88621E-02   -0.32114E-02    49   0.176E+00    0.552E-01
RMM:  40    -0.221493839920E+02   -0.32672E-01   -0.67057E-02    53   0.246E+00    0.134E+00
RMM:  41    -0.222011032112E+02   -0.51719E-01   -0.35153E-02    50   0.172E+00    0.220E+00
RMM:  42    -0.221981016629E+02    0.30015E-02   -0.23787E-03    52   0.603E-01    0.218E+00
RMM:  43    -0.222002634313E+02   -0.21618E-02   -0.61552E-04    56   0.169E-01    0.223E+00
RMM:  44    -0.222015899463E+02   -0.13265E-02   -0.65267E-05    51   0.867E-02    0.225E+00
RMM:  45    -0.221899450823E+02    0.11645E-01   -0.92826E-04    48   0.290E-01    0.208E+00
RMM:  46    -0.221841447653E+02    0.58003E-02   -0.61196E-04    50   0.254E-01    0.196E+00
RMM:  47    -0.222212512388E+02   -0.37106E-01   -0.88596E-03    48   0.894E-01    0.252E+00
RMM:  48    -0.222248491338E+02   -0.35979E-02   -0.96644E-04    49   0.422E-01    0.260E+00
RMM:  49    -0.222262148525E+02   -0.13657E-02   -0.33610E-04    54   0.120E-01    0.263E+00
RMM:  50    -0.221862910359E+02    0.39924E-01   -0.91329E-03    48   0.895E-01    0.206E+00
RMM:  51    -0.221498125723E+02    0.36478E-01   -0.18628E-02    50   0.134E+00    0.142E+00
RMM:  52    -0.221385761068E+02    0.11236E-01   -0.93193E-03    53   0.952E-01    0.109E+00
RMM:  53    -0.221309025208E+02    0.76736E-02   -0.52662E-03    50   0.669E-01    0.854E-01
RMM:  54    -0.221313572091E+02   -0.45469E-03   -0.96839E-04    52   0.356E-01    0.791E-01
RMM:  55    -0.221365843033E+02   -0.52271E-02   -0.71549E-04    48   0.286E-01    0.873E-01
RMM:  56    -0.221588479927E+02   -0.22264E-01   -0.14027E-02    48   0.112E+00    0.138E+00
RMM:  57    -0.221795891096E+02   -0.20741E-01   -0.98725E-03    53   0.103E+00    0.180E+00
RMM:  58    -0.221774180220E+02    0.21711E-02   -0.59117E-04    52   0.276E-01    0.179E+00
RMM:  59    -0.221733470807E+02    0.40709E-02   -0.12384E-04    48   0.131E-01    0.172E+00
RMM:  60    -0.221732593656E+02    0.87715E-04   -0.12228E-05    44   0.435E-02    0.171E+00
RMM:  61    -0.221585320131E+02    0.14727E-01   -0.25544E-03    48   0.474E-01    0.145E+00
RMM:  62    -0.221696525654E+02   -0.11121E-01   -0.97822E-04    48   0.328E-01    0.162E+00
RMM:  63    -0.221611564694E+02    0.84961E-02   -0.67339E-04    48   0.290E-01    0.148E+00
RMM:  64    -0.221608534512E+02    0.30302E-03   -0.94505E-05    50   0.110E-01    0.146E+00
RMM:  65    -0.221377044521E+02    0.23149E-01   -0.91185E-03    48   0.899E-01    0.106E+00
RMM:  66    -0.221376538038E+02    0.50648E-04   -0.15314E-03    49   0.504E-01    0.985E-01
RMM:  67    -0.221368433957E+02    0.81041E-03   -0.68581E-04    55   0.206E-01    0.947E-01
RMM:  68    -0.221286127606E+02    0.82306E-02   -0.29606E-03    48   0.508E-01    0.790E-01
RMM:  69    -0.221300187441E+02   -0.14060E-02   -0.22472E-04    50   0.229E-01    0.785E-01
RMM:  70    -0.221227567490E+02    0.72620E-02   -0.32966E-03    49   0.524E-01    0.652E-01
RMM:  71    -0.221222169773E+02    0.53977E-03   -0.81480E-04    51   0.347E-01    0.607E-01
RMM:  72    -0.221216025725E+02    0.61440E-03   -0.39932E-04    56   0.150E-01    0.584E-01
RMM:  73    -0.221178303778E+02    0.37722E-02   -0.16159E-03    48   0.379E-01    0.530E-01
RMM:  74    -0.221183615684E+02   -0.53119E-03   -0.13073E-04    49   0.182E-01    0.524E-01
RMM:  75    -0.221181066409E+02    0.25493E-03   -0.68828E-05    50   0.613E-02    0.520E-01
RMM:  76    -0.221173126213E+02    0.79402E-03   -0.13559E-04    49   0.117E-01    0.511E-01
RMM:  77    -0.221095021041E+02    0.78105E-02   -0.69666E-03    48   0.809E-01    0.443E-01
RMM:  78    -0.221075175649E+02    0.19845E-02   -0.37466E-03    51   0.683E-01    0.430E-01
RMM:  79    -0.221064844887E+02    0.10331E-02   -0.20518E-03    53   0.377E-01    0.430E-01
RMM:  80    -0.221036683548E+02    0.28161E-02   -0.22269E-03    49   0.436E-01    0.447E-01
RMM:  81    -0.221019524382E+02    0.17159E-02   -0.15116E-03    50   0.399E-01    0.464E-01
RMM:  82    -0.221009059855E+02    0.10465E-02   -0.69901E-04    54   0.246E-01    0.483E-01
RMM:  83    -0.221010720790E+02   -0.16609E-03   -0.39523E-05    48   0.913E-02    0.482E-01
RMM:  84    -0.221017594597E+02   -0.68738E-03   -0.89401E-05    47   0.103E-01    0.476E-01
RMM:  85    -0.221001006398E+02    0.16588E-02   -0.46700E-04    48   0.211E-01    0.497E-01
RMM:  86    -0.220964347440E+02    0.36659E-02   -0.19735E-03    50   0.431E-01    0.539E-01
RMM:  87    -0.220976138008E+02   -0.11791E-02   -0.23366E-04    48   0.213E-01    0.538E-01
RMM:  88    -0.220995234830E+02   -0.19097E-02   -0.68486E-04    48   0.263E-01    0.502E-01
RMM:  89    -0.220974843152E+02    0.20392E-02   -0.57621E-04    48   0.242E-01    0.531E-01
RMM:  90    -0.220890621937E+02    0.84221E-02   -0.59130E-03    48   0.747E-01    0.632E-01
RMM:  91    -0.220959760534E+02   -0.69139E-02   -0.24021E-03    48   0.523E-01    0.550E-01
RMM:  92    -0.220675321542E+02    0.28444E-01   -0.30017E-02    48   0.171E+00    0.856E-01
RMM:  93    -0.220896272716E+02   -0.22095E-01   -0.97909E-03    48   0.104E+00    0.649E-01
RMM:  94    -0.220930635729E+02   -0.34363E-02   -0.18908E-03    52   0.449E-01    0.609E-01
RMM:  95    -0.220920850195E+02    0.97855E-03   -0.16075E-04    48   0.174E-01    0.629E-01
RMM:  96    -0.220906030587E+02    0.14820E-02   -0.22846E-04    49   0.158E-01    0.646E-01
RMM:  97    -0.220908015847E+02   -0.19853E-03   -0.11836E-05    43   0.590E-02    0.647E-01
RMM:  98    -0.220918471890E+02   -0.10456E-02   -0.10050E-04    48   0.103E-01    0.633E-01
RMM:  99    -0.220887676317E+02    0.30796E-02   -0.72822E-04    48   0.265E-01    0.680E-01
RMM: 100    -0.220868358458E+02    0.19318E-02   -0.41948E-04    48   0.230E-01
  13 F= -.22118818E+02 E0= -.22118818E+02  d E =-.970906E+00  mag=     0.9999
       N       E                     dE             d eps       ncg     rms          rms(c)
DAV:   1    -0.224956682339E+02   -0.40690E+00   -0.10681E+02    48   0.147E+02    0.947E+00
RMM:   2    -0.227911676443E+02   -0.29550E+00   -0.42958E+00    48   0.235E+01    0.486E+00
RMM:   3    -0.225705775810E+02    0.22059E+00   -0.92388E-01    53   0.773E+00    0.270E+00
RMM:   4    -0.225672653421E+02    0.33122E-02   -0.12585E-01    52   0.460E+00    0.110E+00
RMM:   5    -0.226411394942E+02   -0.73874E-01   -0.53963E-02    50   0.237E+00    0.591E-01
RMM:   6    -0.226757351728E+02   -0.34596E-01   -0.13299E-02    52   0.138E+00    0.272E-01
RMM:   7    -0.227108663471E+02   -0.35131E-01   -0.59249E-03    54   0.705E-01    0.194E-01
RMM:   8    -0.227286966441E+02   -0.17830E-01   -0.31121E-03    53   0.476E-01    0.923E-02
RMM:   9    -0.227364108385E+02   -0.77142E-02   -0.15453E-03    53   0.313E-01    0.416E-02
RMM:  10    -0.227383997532E+02   -0.19889E-02   -0.44580E-04    54   0.180E-01    0.247E-02
RMM:  11    -0.227393996169E+02   -0.99986E-03   -0.23758E-04    53   0.110E-01    0.127E-02
RMM:  12    -0.227397048920E+02   -0.30528E-03   -0.12029E-04    54   0.841E-02    0.591E-03
RMM:  13    -0.227397629765E+02   -0.58084E-04   -0.34186E-05    51   0.418E-02    0.456E-03
RMM:  14    -0.227398620098E+02   -0.99033E-04   -0.14254E-05    43   0.240E-02    0.335E-03
RMM:  15    -0.227399170976E+02   -0.55088E-04   -0.75739E-06    42   0.182E-02    0.193E-03
RMM:  16    -0.227399538684E+02   -0.36771E-04   -0.76263E-06    42   0.168E-02    0.168E-03
RMM:  17    -0.227399631025E+02   -0.92340E-05   -0.16718E-06    33   0.155E-02    0.979E-04
RMM:  18    -0.227399701206E+02   -0.70181E-05   -0.86622E-07    30   0.102E-02    0.805E-04
RMM:  19    -0.227399772070E+02   -0.70864E-05   -0.79462E-07    30   0.947E-03    0.856E-04
RMM:  20    -0.227399811725E+02   -0.39655E-05   -0.66699E-07    28   0.930E-03    0.356E-04
RMM:  21    -0.227399827367E+02   -0.15642E-05   -0.41420E-07    25   0.872E-03    0.250E-04
RMM:  22    -0.227399842187E+02   -0.14820E-05   -0.32693E-07    25   0.661E-03    0.171E-04
RMM:  23    -0.227399849165E+02   -0.69781E-06   -0.20562E-07    24   0.636E-03
  14 F= -.22767941E+02 E0= -.22767941E+02  d E =-.162003E+01  mag=     1.0000
       N       E                     dE             d eps       ncg     rms          rms(c)
DAV:   1    -0.228202035692E+02   -0.80219E-01   -0.28380E+01    96   0.752E+01    0.575E+00
RMM:   2    -0.228314995027E+02   -0.11296E-01   -0.79932E-01    52   0.994E+00    0.204E+00
RMM:   3    -0.228062103243E+02    0.25289E-01   -0.17014E-01    50   0.450E+00    0.134E+00
RMM:   4    -0.227939873843E+02    0.12223E-01   -0.20260E-02    49   0.224E+00    0.498E-01
RMM:   5    -0.227966954594E+02   -0.27081E-02   -0.71616E-03    54   0.915E-01    0.171E-01
RMM:   6    -0.227981924473E+02   -0.14970E-02   -0.46544E-04    50   0.364E-01    0.986E-02
RMM:   7    -0.227993646330E+02   -0.11722E-02   -0.41377E-04    50   0.189E-01    0.464E-02
RMM:   8    -0.227996854849E+02   -0.32085E-03   -0.10086E-04    53   0.108E-01    0.194E-02
RMM:   9    -0.228000593266E+02   -0.37384E-03   -0.51518E-05    50   0.511E-02    0.120E-02
RMM:  10    -0.228002645562E+02   -0.20523E-03   -0.23745E-05    48   0.383E-02    0.732E-03
RMM:  11    -0.228004989992E+02   -0.23444E-03   -0.36446E-05    49   0.343E-02    0.564E-03
RMM:  12    -0.228005958467E+02   -0.96847E-04   -0.18476E-05    47   0.301E-02    0.356E-03
RMM:  13    -0.228006427672E+02   -0.46921E-04   -0.84580E-06    42   0.191E-02    0.192E-03
RMM:  14    -0.228006765775E+02   -0.33810E-04   -0.80766E-06    42   0.185E-02    0.119E-03
RMM:  15    -0.228006859633E+02   -0.93859E-05   -0.15481E-06    32   0.154E-02    0.958E-04
RMM:  16    -0.228006964621E+02   -0.10499E-04   -0.20466E-06    34   0.119E-02    0.113E-03
RMM:  17    -0.228007000381E+02   -0.35760E-05   -0.75131E-07    29   0.113E-02    0.551E-04
RMM:  18    -0.228007040727E+02   -0.40347E-05   -0.63870E-07    29   0.841E-03    0.445E-04
RMM:  19    -0.228007065705E+02   -0.24978E-05   -0.44429E-07    27   0.921E-03    0.363E-04
RMM:  20    -0.228007079203E+02   -0.13498E-05   -0.32080E-07    25   0.681E-03    0.158E-04
RMM:  21    -0.228007090484E+02   -0.11281E-05   -0.21576E-07    24   0.655E-03    0.172E-04
RMM:  22    -0.228007096413E+02   -0.59293E-06   -0.14343E-07    24   0.475E-03
  15 F= -.22827939E+02 E0= -.22827939E+02  d E =-.168003E+01  mag=     1.0000
       N       E                     dE             d eps       ncg     rms          rms(c)
DAV:   1    -0.228038631822E+02   -0.31541E-02   -0.29628E+00    48   0.239E+01    0.176E+00
RMM:   2    -0.228080981932E+02   -0.42350E-02   -0.10482E-01    49   0.373E+00    0.665E-01
RMM:   3    -0.228075908015E+02    0.50739E-03   -0.22238E-02    54   0.133E+00    0.519E-01
RMM:   4    -0.228057937914E+02    0.17970E-02   -0.39283E-03    53   0.740E-01    0.186E-01
RMM:   5    -0.228058798057E+02   -0.86014E-04   -0.66192E-04    54   0.292E-01    0.554E-02
RMM:   6    -0.228059716041E+02   -0.91798E-04   -0.10031E-04    53   0.118E-01    0.330E-02
RMM:   7    -0.228060397271E+02   -0.68123E-04   -0.38780E-05    51   0.648E-02    0.202E-02
RMM:   8    -0.228060890223E+02   -0.49295E-04   -0.14756E-05    51   0.399E-02    0.907E-03
RMM:   9    -0.228061410902E+02   -0.52068E-04   -0.60686E-06    42   0.213E-02    0.411E-03
RMM:  10    -0.228061796263E+02   -0.38536E-04   -0.42429E-06    38   0.163E-02    0.257E-03
RMM:  11    -0.228062129812E+02   -0.33355E-04   -0.40469E-06    39   0.159E-02    0.203E-03
RMM:  12    -0.228062344670E+02   -0.21486E-04   -0.22241E-06    34   0.137E-02    0.167E-03
RMM:  13    -0.228062481870E+02   -0.13720E-04   -0.17030E-06    32   0.150E-02    0.104E-03
RMM:  14    -0.228062545969E+02   -0.64098E-05   -0.11826E-06    31   0.134E-02    0.747E-04
RMM:  15    -0.228062589019E+02   -0.43051E-05   -0.78286E-07    29   0.116E-02    0.371E-04
RMM:  16    -0.228062634375E+02   -0.45356E-05   -0.68652E-07    27   0.986E-03    0.412E-04
RMM:  17    -0.228062657004E+02   -0.22629E-05   -0.48303E-07    25   0.937E-03    0.300E-04
RMM:  18    -0.228062666640E+02   -0.96358E-06   -0.33626E-07    25   0.743E-03
  16 F= -.22833703E+02 E0= -.22833703E+02  d E =-.168579E+01  mag=     1.0000
       N       E                     dE             d eps       ncg     rms          rms(c)
DAV:   1    -0.228232256749E+02   -0.16960E-01   -0.61828E-02    48   0.343E+00    0.252E-01
RMM:   2    -0.228233269717E+02   -0.10130E-03   -0.20333E-03    49   0.509E-01    0.882E-02
RMM:   3    -0.228233248971E+02    0.20745E-05   -0.42036E-04    54   0.182E-01    0.705E-02
RMM:   4    -0.228232825258E+02    0.42371E-04   -0.73612E-05    54   0.969E-02    0.253E-02
RMM:   5    -0.228232830629E+02   -0.53710E-06   -0.97980E-06    49   0.385E-02
  17 F= -.22850691E+02 E0= -.22850691E+02  d E =-.169881E-01  mag=     1.0000
       N       E                     dE             d eps       ncg     rms          rms(c)
DAV:   1    -0.228719484641E+02   -0.48666E-01   -0.55799E-01    48   0.103E+01    0.773E-01
RMM:   2    -0.228729149040E+02   -0.96644E-03   -0.18758E-02    50   0.152E+00    0.258E-01
RMM:   3    -0.228728472275E+02    0.67676E-04   -0.37382E-03    54   0.580E-01    0.204E-01
RMM:   4    -0.228725181048E+02    0.32912E-03   -0.60727E-04    54   0.286E-01    0.755E-02
RMM:   5    -0.228725556721E+02   -0.37567E-04   -0.88940E-05    54   0.115E-01    0.203E-02
RMM:   6    -0.228726517343E+02   -0.96062E-04   -0.14644E-05    52   0.452E-02    0.124E-02
RMM:   7    -0.228726934795E+02   -0.41745E-04   -0.50682E-06    39   0.251E-02    0.673E-03
RMM:   8    -0.228727071004E+02   -0.13621E-04   -0.27852E-06    35   0.168E-02    0.320E-03
RMM:   9    -0.228727287768E+02   -0.21676E-04   -0.17552E-06    33   0.151E-02    0.171E-03
RMM:  10    -0.228727433370E+02   -0.14560E-04   -0.13263E-06    31   0.138E-02    0.118E-03
RMM:  11    -0.228727542147E+02   -0.10878E-04   -0.14207E-06    32   0.137E-02    0.920E-04
RMM:  12    -0.228727626015E+02   -0.83868E-05   -0.14446E-06    31   0.134E-02    0.671E-04
RMM:  13    -0.228727675719E+02   -0.49704E-05   -0.10600E-06    30   0.134E-02    0.439E-04
RMM:  14    -0.228727699610E+02   -0.23891E-05   -0.72240E-07    28   0.116E-02    0.333E-04
RMM:  15    -0.228727720281E+02   -0.20670E-05   -0.56502E-07    26   0.927E-03    0.234E-04
RMM:  16    -0.228727734892E+02   -0.14611E-05   -0.41663E-07    25   0.841E-03    0.172E-04
RMM:  17    -0.228727743683E+02   -0.87908E-06   -0.32137E-07    26   0.705E-03
  18 F= -.22900101E+02 E0= -.22900101E+02  d E =-.663975E-01  mag=     1.0000
       N       E                     dE             d eps       ncg     rms          rms(c)
DAV:   1    -0.229596477500E+02   -0.86874E-01   -0.22511E+00    48   0.209E+01    0.160E+00
RMM:   2    -0.229634051672E+02   -0.37574E-02   -0.75146E-02    50   0.306E+00    0.495E-01
RMM:   3    -0.229631801515E+02    0.22502E-03   -0.13282E-02    55   0.117E+00    0.366E-01
RMM:   4    -0.229622878089E+02    0.89234E-03   -0.20242E-03    54   0.534E-01    0.143E-01
RMM:   5    -0.229623925814E+02   -0.10477E-03   -0.29880E-04    52   0.214E-01    0.409E-02
RMM:   6    -0.229626150359E+02   -0.22245E-03   -0.47467E-05    50   0.939E-02    0.244E-02
RMM:   7    -0.229627010597E+02   -0.86024E-04   -0.19316E-05    54   0.442E-02    0.123E-02
RMM:   8    -0.229627389440E+02   -0.37884E-04   -0.97962E-06    47   0.268E-02    0.619E-03
RMM:   9    -0.229627884747E+02   -0.49531E-04   -0.39874E-06    38   0.187E-02    0.324E-03
RMM:  10    -0.229628223218E+02   -0.33847E-04   -0.32262E-06    37   0.159E-02    0.209E-03
RMM:  11    -0.229628530848E+02   -0.30763E-04   -0.38666E-06    39   0.149E-02    0.150E-03
RMM:  12    -0.229628734483E+02   -0.20363E-04   -0.32250E-06    36   0.155E-02    0.878E-04
RMM:  13    -0.229628833805E+02   -0.99322E-05   -0.17882E-06    33   0.131E-02    0.128E-03
RMM:  14    -0.229628862706E+02   -0.28900E-05   -0.68832E-07    29   0.116E-02    0.540E-04
RMM:  15    -0.229628913229E+02   -0.50523E-05   -0.77900E-07    27   0.948E-03    0.529E-04
RMM:  16    -0.229628936223E+02   -0.22995E-05   -0.48460E-07    26   0.102E-02    0.332E-04
RMM:  17    -0.229628964209E+02   -0.27986E-05   -0.59244E-07    27   0.744E-03    0.240E-04
RMM:  18    -0.229628970730E+02   -0.65214E-06   -0.29589E-07    24   0.899E-03
  19 F= -.22990070E+02 E0= -.22990070E+02  d E =-.156367E+00  mag=     1.0000
       N       E                     dE             d eps       ncg     rms          rms(c)
DAV:   1    -0.230812215045E+02   -0.11833E+00   -0.91735E+00    48   0.428E+01    0.336E+00
RMM:   2    -0.230958486802E+02   -0.14627E-01   -0.30598E-01    50   0.617E+00    0.907E-01
RMM:   3    -0.230944653199E+02    0.13834E-02   -0.40312E-02    54   0.236E+00    0.561E-01
RMM:   4    -0.230930566594E+02    0.14087E-02   -0.52340E-03    52   0.101E+00    0.252E-01
RMM:   5    -0.230933234680E+02   -0.26681E-03   -0.14035E-03    54   0.426E-01    0.926E-02
RMM:   6    -0.230936965957E+02   -0.37313E-03   -0.21352E-04    52   0.223E-01    0.490E-02
RMM:   7    -0.230939337799E+02   -0.23718E-03   -0.70480E-05    52   0.729E-02    0.204E-02
RMM:   8    -0.230941075803E+02   -0.17380E-03   -0.31568E-05    53   0.499E-02    0.863E-03
RMM:   9    -0.230942422056E+02   -0.13463E-03   -0.14760E-05    50   0.281E-02    0.518E-03
RMM:  10    -0.230943616751E+02   -0.11947E-03   -0.12048E-05    44   0.232E-02    0.383E-03
RMM:  11    -0.230944462776E+02   -0.84602E-04   -0.13835E-05    47   0.251E-02    0.339E-03
RMM:  12    -0.230944806407E+02   -0.34363E-04   -0.54987E-06    40   0.204E-02    0.192E-03
RMM:  13    -0.230945076478E+02   -0.27007E-04   -0.44955E-06    40   0.125E-02    0.128E-03
RMM:  14    -0.230945253885E+02   -0.17741E-04   -0.24193E-06    35   0.150E-02    0.958E-04
RMM:  15    -0.230945322164E+02   -0.68279E-05   -0.95115E-07    29   0.115E-02    0.660E-04
RMM:  16    -0.230945392741E+02   -0.70577E-05   -0.10296E-06    32   0.117E-02    0.511E-04
RMM:  17    -0.230945451093E+02   -0.58352E-05   -0.11898E-06    28   0.103E-02    0.455E-04
RMM:  18    -0.230945467236E+02   -0.16143E-05   -0.50937E-07    27   0.113E-02    0.282E-04
RMM:  19    -0.230945478474E+02   -0.11238E-05   -0.33007E-07    24   0.705E-03    0.128E-04
RMM:  20    -0.230945486521E+02   -0.80465E-06   -0.21269E-07    23   0.721E-03
  20 F= -.23121443E+02 E0= -.23121443E+02  d E =-.287740E+00  mag=     1.0000
       N       E                     dE             d eps       ncg     rms          rms(c)
DAV:   1    -0.229550428485E+02    0.13950E+00   -0.38374E+01    48   0.911E+01    0.679E+00
RMM:   2    -0.230161775671E+02   -0.61135E-01   -0.12954E+00    49   0.125E+01    0.149E+00
RMM:   3    -0.230105959126E+02    0.55817E-02   -0.97986E-02    51   0.494E+00    0.967E-01
RMM:   4    -0.230084938349E+02    0.21021E-02   -0.22859E-02    58   0.165E+00    0.613E-01
RMM:   5    -0.230076356006E+02    0.85823E-03   -0.56040E-03    51   0.963E-01    0.238E-01
RMM:   6    -0.230081888377E+02   -0.55324E-03   -0.11978E-03    49   0.606E-01    0.918E-02
RMM:   7    -0.230090635592E+02   -0.87472E-03   -0.56258E-04    55   0.201E-01    0.494E-02
RMM:   8    -0.230098365267E+02   -0.77297E-03   -0.16873E-04    51   0.141E-01    0.197E-02
RMM:   9    -0.230103867405E+02   -0.55021E-03   -0.10202E-04    55   0.743E-02    0.124E-02
RMM:  10    -0.230107502352E+02   -0.36349E-03   -0.62459E-05    50   0.591E-02    0.865E-03
RMM:  11    -0.230110098404E+02   -0.25961E-03   -0.56228E-05    51   0.450E-02    0.517E-03
RMM:  12    -0.230111329809E+02   -0.12314E-03   -0.27196E-05    48   0.352E-02    0.450E-03
RMM:  13    -0.230112030674E+02   -0.70086E-04   -0.14562E-05    43   0.267E-02    0.298E-03
RMM:  14    -0.230112533872E+02   -0.50320E-04   -0.85156E-06    42   0.211E-02    0.181E-03
RMM:  15    -0.230112766882E+02   -0.23301E-04   -0.34519E-06    36   0.185E-02    0.178E-03
RMM:  16    -0.230112913769E+02   -0.14689E-04   -0.18822E-06    33   0.134E-02    0.120E-03
RMM:  17    -0.230113022571E+02   -0.10880E-04   -0.17026E-06    33   0.142E-02    0.608E-04
RMM:  18    -0.230113074264E+02   -0.51693E-05   -0.10929E-06    31   0.129E-02    0.526E-04
RMM:  19    -0.230113095400E+02   -0.21136E-05   -0.52002E-07    28   0.118E-02    0.327E-04
RMM:  20    -0.230113117884E+02   -0.22484E-05   -0.42110E-07    25   0.797E-03    0.269E-04
RMM:  21    -0.230113129300E+02   -0.11416E-05   -0.27202E-07    25   0.837E-03    0.212E-04
RMM:  22    -0.230113134185E+02   -0.48850E-06   -0.17660E-07    23   0.583E-03
  21 F= -.23037664E+02 E0= -.23037664E+02  d E =-.203961E+00  mag=     1.0000
       N       E                     dE             d eps       ncg     rms          rms(c)
DAV:   1    -0.230953638462E+02   -0.84051E-01   -0.18865E+01    48   0.609E+01    0.344E+00
RMM:   2    -0.231228285733E+02   -0.27465E-01   -0.59703E-01    50   0.854E+00    0.110E+00
RMM:   3    -0.231215273394E+02    0.13012E-02   -0.62886E-02    53   0.323E+00    0.709E-01
RMM:   4    -0.231187751832E+02    0.27522E-02   -0.11124E-02    54   0.119E+00    0.402E-01
RMM:   5    -0.231181982459E+02    0.57694E-03   -0.28759E-03    53   0.632E-01    0.139E-01
RMM:   6    -0.231185681693E+02   -0.36992E-03   -0.60892E-04    51   0.361E-01    0.859E-02
RMM:   7    -0.231189921524E+02   -0.42398E-03   -0.18110E-04    54   0.127E-01    0.434E-02
RMM:   8    -0.231192620082E+02   -0.26986E-03   -0.54756E-05    53   0.794E-02    0.190E-02
RMM:   9    -0.231195230539E+02   -0.26105E-03   -0.41703E-05    50   0.423E-02    0.942E-03
RMM:  10    -0.231197897635E+02   -0.26671E-03   -0.42937E-05    50   0.434E-02    0.798E-03
RMM:  11    -0.231199230186E+02   -0.13326E-03   -0.16776E-05    45   0.338E-02    0.493E-03
RMM:  12    -0.231200239380E+02   -0.10092E-03   -0.12701E-05    44   0.267E-02    0.282E-03
RMM:  13    -0.231200928901E+02   -0.68952E-04   -0.96548E-06    42   0.261E-02    0.160E-03
RMM:  14    -0.231201229267E+02   -0.30037E-04   -0.34060E-06    39   0.193E-02    0.103E-03
RMM:  15    -0.231201509537E+02   -0.28027E-04   -0.24807E-06    35   0.150E-02    0.966E-04
RMM:  16    -0.231201741357E+02   -0.23182E-04   -0.28656E-06    36   0.149E-02    0.915E-04
RMM:  17    -0.231201812670E+02   -0.71313E-05   -0.11780E-06    31   0.136E-02    0.654E-04
RMM:  18    -0.231201860788E+02   -0.48118E-05   -0.74200E-07    30   0.117E-02    0.630E-04
RMM:  19    -0.231201884748E+02   -0.23960E-05   -0.52941E-07    26   0.102E-02    0.188E-04
RMM:  20    -0.231201894088E+02   -0.93408E-06   -0.32239E-07    24   0.827E-03
  22 F= -.23146918E+02 E0= -.23146918E+02  d E =-.313214E+00  mag=     1.0000
       N       E                     dE             d eps       ncg     rms          rms(c)
DAV:   1    -0.232874421445E+02   -0.16725E+00   -0.30412E-01    48   0.770E+00    0.543E-01
RMM:   2    -0.232878979286E+02   -0.45578E-03   -0.96620E-03    49   0.109E+00    0.138E-01
RMM:   3    -0.232878354123E+02    0.62516E-04   -0.94613E-04    52   0.428E-01    0.844E-02
RMM:   4    -0.232878125854E+02    0.22827E-04   -0.18227E-04    53   0.161E-01    0.495E-02
RMM:   5    -0.232878109325E+02    0.16529E-05   -0.57429E-05    52   0.930E-02    0.191E-02
RMM:   6    -0.232878085705E+02    0.23620E-05   -0.14247E-05    51   0.532E-02    0.104E-02
RMM:   7    -0.232878186027E+02   -0.10032E-04   -0.25850E-06    35   0.195E-02    0.526E-03
RMM:   8    -0.232878373558E+02   -0.18753E-04   -0.12230E-06    31   0.161E-02    0.272E-03
RMM:   9    -0.232878476678E+02   -0.10312E-04   -0.83210E-07    31   0.129E-02    0.169E-03
RMM:  10    -0.232878576706E+02   -0.10003E-04   -0.10310E-06    32   0.125E-02    0.112E-03
RMM:  11    -0.232878668547E+02   -0.91841E-05   -0.13009E-06    32   0.117E-02    0.918E-04
RMM:  12    -0.232878725782E+02   -0.57236E-05   -0.88095E-07    31   0.129E-02    0.692E-04
RMM:  13    -0.232878761170E+02   -0.35388E-05   -0.67401E-07    29   0.114E-02    0.508E-04
RMM:  14    -0.232878793253E+02   -0.32083E-05   -0.62612E-07    28   0.967E-03    0.391E-04
RMM:  15    -0.232878810273E+02   -0.17020E-05   -0.45491E-07    26   0.957E-03    0.318E-04
RMM:  16    -0.232878819761E+02   -0.94883E-06   -0.31995E-07    26   0.726E-03
  23 F= -.23314578E+02 E0= -.23314578E+02  d E =-.167661E+00  mag=     1.0000
       N       E                     dE             d eps       ncg     rms          rms(c)
DAV:   1    -0.237583465196E+02   -0.47047E+00   -0.27701E+00    48   0.235E+01    0.161E+00
RMM:   2    -0.237625235977E+02   -0.41771E-02   -0.87382E-02    49   0.326E+00    0.399E-01
RMM:   3    -0.237620142548E+02    0.50934E-03   -0.75518E-03    50   0.133E+00    0.253E-01
RMM:   4    -0.237618254224E+02    0.18883E-03   -0.17320E-03    56   0.457E-01    0.161E-01
RMM:   5    -0.237617663564E+02    0.59066E-04   -0.47508E-04    51   0.295E-01    0.597E-02
RMM:   6    -0.237617728085E+02   -0.64522E-05   -0.12181E-04    53   0.166E-01    0.308E-02
RMM:   7    -0.237618615337E+02   -0.88725E-04   -0.29988E-05    53   0.505E-02    0.151E-02
RMM:   8    -0.237619829582E+02   -0.12142E-03   -0.12914E-05    48   0.338E-02    0.597E-03
RMM:   9    -0.237620594643E+02   -0.76506E-04   -0.76384E-06    42   0.233E-02    0.325E-03
RMM:  10    -0.237621128812E+02   -0.53417E-04   -0.56549E-06    39   0.231E-02    0.274E-03
RMM:  11    -0.237621601437E+02   -0.47263E-04   -0.80824E-06    42   0.200E-02    0.189E-03
RMM:  12    -0.237621828492E+02   -0.22705E-04   -0.29607E-06    36   0.188E-02    0.128E-03
RMM:  13    -0.237622011702E+02   -0.18321E-04   -0.27508E-06    36   0.140E-02    0.941E-04
RMM:  14    -0.237622086204E+02   -0.74502E-05   -0.10643E-06    32   0.145E-02    0.831E-04
RMM:  15    -0.237622136477E+02   -0.50273E-05   -0.80706E-07    32   0.104E-02    0.460E-04
RMM:  16    -0.237622191529E+02   -0.55053E-05   -0.65124E-07    30   0.102E-02    0.508E-04
RMM:  17    -0.237622227085E+02   -0.35555E-05   -0.66491E-07    27   0.101E-02    0.448E-04
RMM:  18    -0.237622235183E+02   -0.80982E-06   -0.38916E-07    28   0.992E-03
  24 F= -.23788828E+02 E0= -.23788828E+02  d E =-.641911E+00  mag=     1.0000
       N       E                     dE             d eps       ncg     rms          rms(c)
DAV:   1    -0.245357702244E+02   -0.77355E+00   -0.11430E+01    48   0.489E+01    0.302E+00
RMM:   2    -0.245522262081E+02   -0.16456E-01   -0.36896E-01    49   0.677E+00    0.831E-01
RMM:   3    -0.245503111027E+02    0.19151E-02   -0.28830E-02    50   0.284E+00    0.642E-01
RMM:   4    -0.245488442567E+02    0.14668E-02   -0.75450E-03    55   0.930E-01    0.422E-01
RMM:   5    -0.245484190723E+02    0.42518E-03   -0.25605E-03    51   0.718E-01    0.118E-01
RMM:   6    -0.245485415184E+02   -0.12245E-03   -0.46537E-04    52   0.314E-01    0.551E-02
RMM:   7    -0.245489618965E+02   -0.42038E-03   -0.13202E-04    52   0.111E-01    0.278E-02
RMM:   8    -0.245493272763E+02   -0.36538E-03   -0.52916E-05    52   0.701E-02    0.123E-02
RMM:   9    -0.245495531616E+02   -0.22589E-03   -0.32758E-05    52   0.458E-02    0.717E-03
RMM:  10    -0.245497149633E+02   -0.16180E-03   -0.20818E-05    46   0.317E-02    0.624E-03
RMM:  11    -0.245498597313E+02   -0.14477E-03   -0.25910E-05    50   0.337E-02    0.347E-03
RMM:  12    -0.245499288229E+02   -0.69092E-04   -0.11115E-05    42   0.243E-02    0.274E-03
RMM:  13    -0.245499779056E+02   -0.49083E-04   -0.76556E-06    39   0.215E-02    0.212E-03
RMM:  14    -0.245499993533E+02   -0.21448E-04   -0.34144E-06    37   0.182E-02    0.121E-03
RMM:  15    -0.245500148810E+02   -0.15528E-04   -0.21674E-06    34   0.145E-02    0.917E-04
RMM:  16    -0.245500263176E+02   -0.11437E-04   -0.15023E-06    33   0.145E-02    0.975E-04
RMM:  17    -0.245500331560E+02   -0.68384E-05   -0.12869E-06    32   0.123E-02    0.511E-04
RMM:  18    -0.245500354715E+02   -0.23155E-05   -0.60403E-07    28   0.133E-02    0.444E-04
RMM:  19    -0.245500369285E+02   -0.14570E-05   -0.41117E-07    26   0.842E-03    0.201E-04
RMM:  20    -0.245500377961E+02   -0.86755E-06   -0.26941E-07    27   0.832E-03
  25 F= -.24576469E+02 E0= -.24576469E+02  d E =-.142955E+01  mag=     1.0000
       N       E                     dE             d eps       ncg     rms          rms(c)
DAV:   1    -0.250233988549E+02   -0.47336E+00   -0.49112E+01    48   0.108E+02    0.519E+00
RMM:   2    -0.250878979463E+02   -0.64499E-01   -0.17262E+00    49   0.159E+01    0.198E+00
RMM:   3    -0.250745014237E+02    0.13397E-01   -0.12723E-01    50   0.690E+00    0.154E+00
RMM:   4    -0.250631072001E+02    0.11394E-01   -0.43167E-02    53   0.233E+00    0.877E-01
RMM:   5    -0.250622737458E+02    0.83345E-03   -0.12158E-02    51   0.196E+00    0.241E-01
RMM:   6    -0.250630269223E+02   -0.75318E-03   -0.23193E-03    56   0.574E-01    0.142E-01
RMM:   7    -0.250648450896E+02   -0.18182E-02   -0.67999E-04    50   0.295E-01    0.631E-02
RMM:   8    -0.250658274046E+02   -0.98232E-03   -0.25129E-04    54   0.164E-01    0.294E-02
RMM:   9    -0.250664006436E+02   -0.57324E-03   -0.10979E-04    52   0.830E-02    0.205E-02
RMM:  10    -0.250668630379E+02   -0.46239E-03   -0.77513E-05    50   0.666E-02    0.126E-02
RMM:  11    -0.250673737224E+02   -0.51068E-03   -0.10724E-04    49   0.658E-02    0.879E-03
RMM:  12    -0.250675439482E+02   -0.17023E-03   -0.37361E-05    50   0.549E-02    0.796E-03
RMM:  13    -0.250676797880E+02   -0.13584E-03   -0.25427E-05    46   0.294E-02    0.402E-03
RMM:  14    -0.250677672983E+02   -0.87510E-04   -0.18534E-05    45   0.347E-02    0.271E-03
RMM:  15    -0.250678028100E+02   -0.35512E-04   -0.62449E-06    37   0.205E-02    0.225E-03
RMM:  16    -0.250678326718E+02   -0.29862E-04   -0.31675E-06    35   0.199E-02    0.162E-03
RMM:  17    -0.250678566478E+02   -0.23976E-04   -0.42657E-06    36   0.150E-02    0.116E-03
RMM:  18    -0.250678622400E+02   -0.55922E-05   -0.11059E-06    32   0.187E-02    0.911E-04
RMM:  19    -0.250678648346E+02   -0.25946E-05   -0.68980E-07    30   0.102E-02    0.680E-04
RMM:  20    -0.250678675571E+02   -0.27225E-05   -0.50326E-07    30   0.101E-02    0.425E-04
RMM:  21    -0.250678690707E+02   -0.15136E-05   -0.32427E-07    27   0.790E-03    0.397E-04
RMM:  22    -0.250678697116E+02   -0.64095E-06   -0.20084E-07    27   0.761E-03
  26 F= -.25093914E+02 E0= -.25093914E+02  d E =-.194700E+01  mag=     1.0000
       N       E                     dE             d eps       ncg     rms          rms(c)
DAV:   1    -0.251126639695E+02   -0.44795E-01   -0.38825E+00    48   0.285E+01    0.138E+00
RMM:   2    -0.251163953007E+02   -0.37313E-02   -0.13156E-01    49   0.430E+00    0.577E-01
RMM:   3    -0.251149099168E+02    0.14854E-02   -0.12634E-02    50   0.194E+00    0.347E-01
RMM:   4    -0.251141001718E+02    0.80974E-03   -0.30183E-03    52   0.630E-01    0.229E-01
RMM:   5    -0.251139341288E+02    0.16604E-03   -0.74757E-04    52   0.468E-01    0.830E-02
RMM:   6    -0.251140174145E+02   -0.83286E-04   -0.24336E-04    54   0.160E-01    0.445E-02
RMM:   7    -0.251141710826E+02   -0.15367E-03   -0.59372E-05    51   0.107E-01    0.169E-02
RMM:   8    -0.251142520133E+02   -0.80931E-04   -0.14952E-05    50   0.373E-02    0.927E-03
RMM:   9    -0.251143350762E+02   -0.83063E-04   -0.99051E-06    43   0.307E-02    0.457E-03
RMM:  10    -0.251144083460E+02   -0.73270E-04   -0.71848E-06    41   0.254E-02    0.373E-03
RMM:  11    -0.251144708841E+02   -0.62538E-04   -0.69854E-06    40   0.242E-02    0.248E-03
RMM:  12    -0.251145077822E+02   -0.36898E-04   -0.47857E-06    40   0.247E-02    0.151E-03
RMM:  13    -0.251145389324E+02   -0.31150E-04   -0.40423E-06    37   0.192E-02    0.177E-03
RMM:  14    -0.251145520212E+02   -0.13089E-04   -0.14419E-06    32   0.195E-02    0.869E-04
RMM:  15    -0.251145618706E+02   -0.98494E-05   -0.15192E-06    33   0.142E-02    0.930E-04
RMM:  16    -0.251145671398E+02   -0.52692E-05   -0.70634E-07    31   0.137E-02    0.646E-04
RMM:  17    -0.251145704659E+02   -0.33262E-05   -0.53733E-07    29   0.103E-02    0.522E-04
RMM:  18    -0.251145730813E+02   -0.26154E-05   -0.55484E-07    28   0.980E-03    0.512E-04
RMM:  19    -0.251145739011E+02   -0.81981E-06   -0.35944E-07    27   0.939E-03
  27 F= -.25140740E+02 E0= -.25140740E+02  d E =-.199382E+01  mag=     1.0000
       N       E                     dE             d eps       ncg     rms          rms(c)
DAV:   1    -0.254897932113E+02   -0.37522E+00   -0.47809E-01    48   0.995E+00    0.420E-01
RMM:   2    -0.254904618563E+02   -0.66865E-03   -0.16983E-02    49   0.162E+00    0.203E-01
RMM:   3    -0.254903145548E+02    0.14730E-03   -0.13152E-03    49   0.651E-01    0.122E-01
RMM:   4    -0.254904404302E+02   -0.12588E-03   -0.52012E-04    52   0.246E-01    0.716E-02
RMM:   5    -0.254905563442E+02   -0.11591E-03   -0.94336E-05    51   0.171E-01    0.287E-02
RMM:   6    -0.254905998203E+02   -0.43476E-04   -0.24251E-05    52   0.508E-02    0.142E-02
RMM:   7    -0.254906089009E+02   -0.90806E-05   -0.56473E-06    41   0.373E-02    0.473E-03
RMM:   8    -0.254906175543E+02   -0.86533E-05   -0.13222E-06    31   0.183E-02    0.227E-03
RMM:   9    -0.254906251918E+02   -0.76376E-05   -0.77105E-07    31   0.156E-02    0.172E-03
RMM:  10    -0.254906317805E+02   -0.65887E-05   -0.71480E-07    31   0.128E-02    0.982E-04
RMM:  11    -0.254906362858E+02   -0.45053E-05   -0.54054E-07    31   0.122E-02    0.884E-04
RMM:  12    -0.254906408946E+02   -0.46088E-05   -0.58322E-07    31   0.104E-02    0.582E-04
RMM:  13    -0.254906439620E+02   -0.30675E-05   -0.46818E-07    31   0.112E-02    0.600E-04
RMM:  14    -0.254906461986E+02   -0.22366E-05   -0.45098E-07    29   0.889E-03    0.396E-04
RMM:  15    -0.254906468570E+02   -0.65836E-06   -0.26583E-07    27   0.932E-03
[...]
       N       E                     dE             d eps       ncg     rms          rms(c)
DAV:   1    -0.340901877250E+02   -0.20084E-04   -0.15611E-03    48   0.607E-01    0.261E-02
RMM:   2    -0.340901902413E+02   -0.25163E-05   -0.57846E-05    52   0.162E-01    0.197E-02
RMM:   3    -0.340901899950E+02    0.24639E-06   -0.59308E-06    39   0.742E-02    0.127E-02
RMM:   4    -0.340901899277E+02    0.67218E-07   -0.27267E-06    33   0.434E-02    0.842E-03
RMM:   5    -0.340901900343E+02   -0.10656E-06   -0.12172E-06    27   0.490E-02
 975 F= -.34236602E+02 E0= -.34236602E+02  d E =-.362604E-03  mag=     1.0000
       N       E                     dE             d eps       ncg     rms          rms(c)
DAV:   1    -0.340902431666E+02   -0.53239E-04   -0.27927E-02    48   0.256E+00    0.636E-02
RMM:   2    -0.340903181441E+02   -0.74978E-04   -0.90501E-04    56   0.694E-01    0.415E-02
RMM:   3    -0.340903268849E+02   -0.87408E-05   -0.13062E-04    59   0.316E-01    0.269E-02
RMM:   4    -0.340903264271E+02    0.45779E-06   -0.17264E-05    47   0.777E-02    0.199E-02
RMM:   5    -0.340903265333E+02   -0.10616E-06   -0.39104E-06    39   0.744E-02
 976 F= -.34236774E+02 E0= -.34236774E+02  d E =-.172466E-03  mag=     1.0000
       N       E                     dE             d eps       ncg     rms          rms(c)
DAV:   1    -0.340899808848E+02    0.34554E-03   -0.13630E-01    48   0.565E+00    0.133E-01
RMM:   2    -0.340903448631E+02   -0.36398E-03   -0.44346E-03    57   0.152E+00    0.765E-02
RMM:   3    -0.340903830971E+02   -0.38234E-04   -0.61365E-04    60   0.632E-01    0.678E-02
RMM:   4    -0.340903843571E+02   -0.12600E-05   -0.83726E-05    58   0.157E-01    0.531E-02
RMM:   5    -0.340903837415E+02    0.61557E-06   -0.11485E-05    43   0.913E-02    0.415E-02
RMM:   6    -0.340903823884E+02    0.13532E-05   -0.47760E-06    37   0.566E-02    0.249E-02
RMM:   7    -0.340903817074E+02    0.68092E-06   -0.77784E-06    48   0.551E-02
 977 F= -.34236909E+02 E0= -.34236909E+02  d E =-.307360E-03  mag=     1.0000
       N       E                     dE             d eps       ncg     rms          rms(c)
DAV:   1    -0.340904721720E+02   -0.89784E-04   -0.28158E-02    48   0.248E+00    0.719E-02
RMM:   2    -0.340905384105E+02   -0.66238E-04   -0.69046E-04    56   0.568E-01    0.411E-02
RMM:   3    -0.340905509194E+02   -0.12509E-04   -0.14044E-04    54   0.268E-01    0.229E-02
RMM:   4    -0.340905524255E+02   -0.15061E-05   -0.20560E-05    44   0.773E-02    0.248E-02
RMM:   5    -0.340905527242E+02   -0.29866E-06   -0.25140E-06    33   0.556E-02
 978 F= -.34237020E+02 E0= -.34237020E+02  d E =-.111258E-03  mag=     1.0000
       N       E                     dE             d eps       ncg     rms          rms(c)
DAV:   1    -0.340905669357E+02   -0.14510E-04   -0.37059E-02    48   0.284E+00    0.817E-02
RMM:   2    -0.340906586141E+02   -0.91678E-04   -0.99004E-04    58   0.708E-01    0.430E-02
RMM:   3    -0.340906744153E+02   -0.15801E-04   -0.18420E-04    59   0.262E-01    0.355E-02
RMM:   4    -0.340906750661E+02   -0.65079E-06   -0.17177E-05    44   0.872E-02    0.349E-02
RMM:   5    -0.340906752981E+02   -0.23196E-06   -0.38531E-06    37   0.530E-02
 979 F= -.34237075E+02 E0= -.34237075E+02  d E =-.165353E-03  mag=     1.0000
       N       E                     dE             d eps       ncg     rms          rms(c)
DAV:   1    -0.340907552666E+02   -0.80201E-04   -0.10491E-02    48   0.152E+00    0.424E-02
RMM:   2    -0.340907819700E+02   -0.26703E-04   -0.28031E-04    60   0.328E-01    0.220E-02
RMM:   3    -0.340907846046E+02   -0.26346E-05   -0.30514E-05    46   0.136E-01    0.141E-02
RMM:   4    -0.340907849955E+02   -0.39088E-06   -0.63995E-06    37   0.553E-02    0.182E-02
RMM:   5    -0.340907851031E+02   -0.10768E-06   -0.73977E-07    31   0.311E-02
 980 F= -.34237169E+02 E0= -.34237169E+02  d E =-.942921E-04  mag=     1.0000
       N       E                     dE             d eps       ncg     rms          rms(c)
DAV:   1    -0.340907184064E+02    0.66589E-04   -0.94900E-02    48   0.458E+00    0.105E-01
RMM:   2    -0.340909744837E+02   -0.25608E-03   -0.26313E-03    61   0.984E-01    0.620E-02
RMM:   3    -0.340909987515E+02   -0.24268E-04   -0.28330E-04    60   0.391E-01    0.455E-02
RMM:   4    -0.340910004697E+02   -0.17183E-05   -0.51798E-05    50   0.116E-01    0.398E-02
RMM:   5    -0.340910009151E+02   -0.44542E-06   -0.57861E-06    37   0.650E-02
 981 F= -.34237338E+02 E0= -.34237338E+02  d E =-.263190E-03  mag=     1.0000
       N       E                     dE             d eps       ncg     rms          rms(c)
DAV:   1    -0.340897633982E+02    0.12371E-02   -0.37971E-01    48   0.918E+00    0.209E-01
RMM:   2    -0.340908011751E+02   -0.10378E-02   -0.10730E-02    61   0.203E+00    0.126E-01
RMM:   3    -0.340909014744E+02   -0.10030E-03   -0.11964E-03    60   0.816E-01    0.882E-02
RMM:   4    -0.340909086921E+02   -0.72178E-05   -0.23553E-04    60   0.228E-01    0.805E-02
RMM:   5    -0.340909113317E+02   -0.26395E-05   -0.23808E-05    45   0.109E-01    0.716E-02
RMM:   6    -0.340909109448E+02    0.38681E-06   -0.68185E-06    40   0.591E-02
 982 F= -.34237152E+02 E0= -.34237152E+02  d E =-.778990E-04  mag=     1.0000
       N       E                     dE             d eps       ncg     rms          rms(c)
DAV:   1    -0.340905164317E+02    0.39490E-03   -0.20482E-01    48   0.670E+00    0.137E-01
RMM:   2    -0.340910059277E+02   -0.48950E-03   -0.50120E-03    59   0.117E+00    0.871E-02
RMM:   3    -0.340910424647E+02   -0.36537E-04   -0.44083E-04    58   0.612E-01    0.649E-02
RMM:   4    -0.340910476356E+02   -0.51709E-05   -0.11053E-04    52   0.155E-01    0.691E-02
RMM:   5    -0.340910475804E+02    0.55231E-07   -0.98018E-06    42   0.965E-02
 983 F= -.34237359E+02 E0= -.34237359E+02  d E =-.284292E-03  mag=     1.0000
       N       E                     dE             d eps       ncg     rms          rms(c)
DAV:   1    -0.340911045769E+02   -0.56941E-04   -0.24284E-02    48   0.232E+00    0.680E-02
RMM:   2    -0.340911663918E+02   -0.61815E-04   -0.60079E-04    57   0.440E-01    0.435E-02
RMM:   3    -0.340911726640E+02   -0.62722E-05   -0.64686E-05    52   0.245E-01    0.261E-02
RMM:   4    -0.340911734347E+02   -0.77068E-06   -0.96906E-06    40   0.642E-02    0.168E-02
RMM:   5    -0.340911736144E+02   -0.17978E-06   -0.13700E-06    30   0.420E-02
 984 F= -.34237440E+02 E0= -.34237440E+02  d E =-.810222E-04  mag=     1.0000
       N       E                     dE             d eps       ncg     rms          rms(c)
DAV:   1    -0.340908676967E+02    0.30574E-03   -0.21663E-01    48   0.693E+00    0.118E-01
RMM:   2    -0.340914482637E+02   -0.58057E-03   -0.58189E-03    57   0.144E+00    0.778E-02
RMM:   3    -0.340915142968E+02   -0.66033E-04   -0.70194E-04    58   0.674E-01    0.489E-02
RMM:   4    -0.340915189816E+02   -0.46848E-05   -0.10310E-04    55   0.182E-01    0.446E-02
RMM:   5    -0.340915200791E+02   -0.10975E-05   -0.12829E-05    45   0.959E-02    0.356E-02
RMM:   6    -0.340915197091E+02    0.37000E-06   -0.32128E-06    35   0.478E-02
 985 F= -.34237651E+02 E0= -.34237651E+02  d E =-.291990E-03  mag=     1.0000
       N       E                     dE             d eps       ncg     rms          rms(c)
DAV:   1    -0.340896133547E+02    0.19067E-02   -0.86557E-01    48   0.139E+01    0.285E-01
RMM:   2    -0.340917818646E+02   -0.21685E-02   -0.21780E-02    56   0.266E+00    0.155E-01
RMM:   3    -0.340920181264E+02   -0.23626E-03   -0.25729E-03    58   0.135E+00    0.881E-02
RMM:   4    -0.340920440464E+02   -0.25920E-04   -0.39869E-04    57   0.374E-01    0.947E-02
RMM:   5    -0.340920490571E+02   -0.50107E-05   -0.46175E-05    52   0.164E-01    0.756E-02
RMM:   6    -0.340920491414E+02   -0.84342E-07   -0.10526E-05    41   0.748E-02    0.576E-02
RMM:   7    -0.340920471328E+02    0.20087E-05   -0.10340E-05    46   0.708E-02    0.350E-02
RMM:   8    -0.340920477805E+02   -0.64771E-06   -0.92502E-06    46   0.722E-02
 986 F= -.34237908E+02 E0= -.34237908E+02  d E =-.549359E-03  mag=     1.0000
       N       E                     dE             d eps       ncg     rms          rms(c)
DAV:   1    -0.340815262116E+02    0.10521E-01   -0.34593E+00    48   0.279E+01    0.559E-01
RMM:   2    -0.340909774782E+02   -0.94513E-02   -0.94741E-02    55   0.659E+00    0.346E-01
RMM:   3    -0.340923008655E+02   -0.13234E-02   -0.13809E-02    57   0.298E+00    0.203E-01
RMM:   4    -0.340924196341E+02   -0.11877E-03   -0.20912E-03    58   0.108E+00    0.184E-01
RMM:   5    -0.340924375580E+02   -0.17924E-04   -0.23672E-04    58   0.280E-01    0.145E-01
RMM:   6    -0.340924290922E+02    0.84659E-05   -0.48841E-05    54   0.151E-01    0.939E-02
RMM:   7    -0.340924230270E+02    0.60652E-05   -0.65834E-05    62   0.127E-01    0.525E-02
RMM:   8    -0.340924249222E+02   -0.18952E-05   -0.12454E-05    46   0.692E-02    0.481E-02
RMM:   9    -0.340924244612E+02    0.46100E-06   -0.26007E-06    34   0.630E-02
 987 F= -.34237742E+02 E0= -.34237742E+02  d E =-.383236E-03  mag=     1.0000
       N       E                     dE             d eps       ncg     rms          rms(c)
DAV:   1    -0.340891166388E+02    0.33083E-02   -0.10688E+00    48   0.154E+01    0.278E-01
RMM:   2    -0.340920266527E+02   -0.29100E-02   -0.29021E-02    59   0.319E+00    0.191E-01
RMM:   3    -0.340922998318E+02   -0.27318E-03   -0.29847E-03    57   0.148E+00    0.153E-01
RMM:   4    -0.340923286975E+02   -0.28866E-04   -0.52117E-04    59   0.352E-01    0.100E-01
RMM:   5    -0.340923313262E+02   -0.26287E-05   -0.60028E-05    47   0.227E-01    0.786E-02
RMM:   6    -0.340923256154E+02    0.57108E-05   -0.33105E-05    50   0.888E-02    0.315E-02
RMM:   7    -0.340923265599E+02   -0.94450E-06   -0.15316E-05    50   0.118E-01    0.373E-02
RMM:   8    -0.340923268043E+02   -0.24445E-06   -0.46965E-06    42   0.531E-02
 988 F= -.34237946E+02 E0= -.34237946E+02  d E =-.587567E-03  mag=     1.0000
       N       E                     dE             d eps       ncg     rms          rms(c)
DAV:   1    -0.340923994879E+02   -0.72928E-04   -0.60867E-02    48   0.367E+00    0.663E-02
RMM:   2    -0.340925390921E+02   -0.13960E-03   -0.14544E-03    56   0.713E-01    0.447E-02
RMM:   3    -0.340925514434E+02   -0.12351E-04   -0.14201E-04    58   0.324E-01    0.252E-02
RMM:   4    -0.340925517995E+02   -0.35614E-06   -0.24068E-05    46   0.881E-02    0.296E-02
RMM:   5    -0.340925520081E+02   -0.20856E-06   -0.24130E-06    34   0.505E-02
 989 F= -.34238125E+02 E0= -.34238125E+02  d E =-.178500E-03  mag=     1.0000
       N       E                     dE             d eps       ncg     rms          rms(c)
DAV:   1    -0.340915934455E+02    0.95835E-03   -0.54602E-01    48   0.110E+01    0.192E-01
RMM:   2    -0.340930196414E+02   -0.14262E-02   -0.14662E-02    57   0.235E+00    0.125E-01
RMM:   3    -0.340931794241E+02   -0.15978E-03   -0.17595E-03    60   0.104E+00    0.718E-02
RMM:   4    -0.340931875502E+02   -0.81261E-05   -0.24705E-04    58   0.271E-01    0.835E-02
RMM:   5    -0.340931903755E+02   -0.28253E-05   -0.34670E-05    47   0.143E-01    0.620E-02
RMM:   6    -0.340931887555E+02    0.16200E-05   -0.86491E-06    42   0.554E-02    0.444E-02
RMM:   7    -0.340931871671E+02    0.15884E-05   -0.16850E-05    51   0.777E-02    0.291E-02
RMM:   8    -0.340931876384E+02   -0.47138E-06   -0.35072E-06    38   0.656E-02
 990 F= -.34238620E+02 E0= -.34238620E+02  d E =-.673855E-03  mag=     1.0000
       N       E                     dE             d eps       ncg     rms          rms(c)
DAV:   1    -0.340879859865E+02    0.52012E-02   -0.21855E+00    48   0.220E+01    0.424E-01
RMM:   2    -0.340935481210E+02   -0.55621E-02   -0.57043E-02    56   0.436E+00    0.271E-01
RMM:   3    -0.340942141355E+02   -0.66601E-03   -0.71883E-03    57   0.237E+00    0.162E-01
RMM:   4    -0.340942640064E+02   -0.49871E-04   -0.10386E-03    59   0.558E-01    0.147E-01
RMM:   5    -0.340942713291E+02   -0.73227E-05   -0.11468E-04    52   0.278E-01    0.110E-01
RMM:   6    -0.340942622667E+02    0.90624E-05   -0.77734E-05    54   0.139E-01    0.491E-02
RMM:   7    -0.340942638963E+02   -0.16296E-05   -0.31183E-05    59   0.123E-01    0.541E-02
RMM:   8    -0.340942639271E+02   -0.30805E-07   -0.56001E-06    40   0.501E-02
 991 F= -.34239416E+02 E0= -.34239416E+02  d E =-.146925E-02  mag=     1.0000
       N       E                     dE             d eps       ncg     rms          rms(c)
DAV:   1    -0.340703436051E+02    0.23920E-01   -0.87495E+00    48   0.442E+01    0.952E-01
RMM:   2    -0.340924810959E+02   -0.22137E-01   -0.23094E-01    54   0.939E+00    0.564E-01
RMM:   3    -0.340953698198E+02   -0.28887E-02   -0.31239E-02    56   0.484E+00    0.338E-01
RMM:   4    -0.340956496460E+02   -0.27983E-03   -0.50358E-03    60   0.125E+00    0.338E-01
RMM:   5    -0.340957069479E+02   -0.57302E-04   -0.65424E-04    56   0.531E-01    0.280E-01
RMM:   6    -0.340956956671E+02    0.11281E-04   -0.12674E-04    58   0.226E-01    0.230E-01
RMM:   7    -0.340956698885E+02    0.25779E-04   -0.29383E-04    64   0.247E-01    0.175E-01
RMM:   8    -0.340956760026E+02   -0.61141E-05   -0.34954E-05    58   0.114E-01    0.153E-01
RMM:   9    -0.340956713344E+02    0.46682E-05   -0.35252E-06    36   0.607E-02    0.848E-02
RMM:  10    -0.340956688831E+02    0.24514E-05   -0.73114E-06    44   0.470E-02    0.340E-02
RMM:  11    -0.340956699245E+02   -0.10414E-05   -0.83740E-06    47   0.609E-02    0.531E-02
RMM:  12    -0.340956701333E+02   -0.20880E-06   -0.90819E-07    31   0.345E-02
 992 F= -.34240260E+02 E0= -.34240260E+02  d E =-.231322E-02  mag=     1.0000
       N       E                     dE             d eps       ncg     rms          rms(c)
DAV:   1    -0.340945036829E+02    0.11662E-02   -0.49493E-01    48   0.104E+01    0.270E-01
RMM:   2    -0.340959210189E+02   -0.14173E-02   -0.14928E-02    56   0.266E+00    0.144E-01
RMM:   3    -0.340960925881E+02   -0.17157E-03   -0.18435E-03    59   0.103E+00    0.114E-01
RMM:   4    -0.340961201074E+02   -0.27519E-04   -0.35732E-04    56   0.416E-01    0.123E-01
RMM:   5    -0.340961219609E+02   -0.18535E-05   -0.30540E-05    48   0.130E-01    0.101E-01
RMM:   6    -0.340961198630E+02    0.20979E-05   -0.79237E-06    40   0.624E-02    0.780E-02
RMM:   7    -0.340961159239E+02    0.39391E-05   -0.25062E-05    54   0.836E-02    0.587E-02
RMM:   8    -0.340961171206E+02   -0.11967E-05   -0.52933E-06    42   0.704E-02    0.601E-02
RMM:   9    -0.340961169222E+02    0.19839E-06   -0.11810E-06    31   0.382E-02
 993 F= -.34240734E+02 E0= -.34240734E+02  d E =-.474389E-03  mag=     1.0000
       N       E                     dE             d eps       ncg     rms          rms(c)
DAV:   1    -0.340961148942E+02    0.22263E-05   -0.50276E-04    60   0.329E-01    0.237E-02
RMM:   2    -0.340961157817E+02   -0.88752E-06   -0.93742E-06    40   0.496E-02    0.122E-02
RMM:   3    -0.340961159399E+02   -0.15820E-06   -0.12322E-06    32   0.416E-02    0.876E-03
RMM:   4    -0.340961160039E+02   -0.64002E-07   -0.41017E-07    30   0.172E-02    0.309E-03
RMM:   5    -0.340961160284E+02   -0.24441E-07   -0.17353E-07    27   0.171E-02
 994 F= -.34240734E+02 E0= -.34240734E+02  d E =-.474326E-03  mag=     1.0000
       N       E                     dE             d eps       ncg     rms          rms(c)
DAV:   1    -0.340952342681E+02    0.88174E-03   -0.47132E-01    48   0.102E+01    0.228E-01
RMM:   2    -0.340965287802E+02   -0.12945E-02   -0.13793E-02    57   0.269E+00    0.147E-01
RMM:   3    -0.340967182610E+02   -0.18948E-03   -0.21562E-03    61   0.105E+00    0.113E-01
RMM:   4    -0.340967320803E+02   -0.13819E-04   -0.27686E-04    59   0.298E-01    0.741E-02
RMM:   5    -0.340967314652E+02    0.61510E-06   -0.34638E-05    50   0.120E-01    0.578E-02
RMM:   6    -0.340967291080E+02    0.23572E-05   -0.18134E-05    50   0.844E-02    0.207E-02
RMM:   7    -0.340967296925E+02   -0.58454E-06   -0.87815E-06    47   0.817E-02
 995 F= -.34241245E+02 E0= -.34241245E+02  d E =-.511297E-03  mag=     1.0000
       N       E                     dE             d eps       ncg     rms          rms(c)
DAV:   1    -0.340944647442E+02    0.22644E-02   -0.78530E-01    48   0.131E+01    0.306E-01
RMM:   2    -0.340965343984E+02   -0.20697E-02   -0.22087E-02    55   0.358E+00    0.197E-01
RMM:   3    -0.340969600524E+02   -0.42565E-03   -0.46460E-03    61   0.144E+00    0.149E-01
RMM:   4    -0.340969930504E+02   -0.32998E-04   -0.52992E-04    59   0.352E-01    0.999E-02
RMM:   5    -0.340969933017E+02   -0.25135E-06   -0.57390E-05    52   0.180E-01    0.809E-02
RMM:   6    -0.340969922400E+02    0.10617E-05   -0.19785E-05    49   0.943E-02    0.578E-02
RMM:   7    -0.340969916383E+02    0.60174E-06   -0.30188E-05    58   0.109E-01    0.412E-02
RMM:   8    -0.340969921711E+02   -0.53289E-06   -0.34796E-06    37   0.452E-02
 996 F= -.34241374E+02 E0= -.34241374E+02  d E =-.639907E-03  mag=     1.0000
       N       E                     dE             d eps       ncg     rms          rms(c)
DAV:   1    -0.340964994137E+02    0.49222E-03   -0.28904E-01    48   0.803E+00    0.187E-01
RMM:   2    -0.340973417256E+02   -0.84231E-03   -0.85176E-03    57   0.201E+00    0.115E-01
RMM:   3    -0.340974467078E+02   -0.10498E-03   -0.11708E-03    59   0.880E-01    0.104E-01
RMM:   4    -0.340974585616E+02   -0.11854E-04   -0.18107E-04    54   0.304E-01    0.605E-02
RMM:   5    -0.340974591818E+02   -0.62022E-06   -0.24088E-05    51   0.138E-01    0.475E-02
RMM:   6    -0.340974587382E+02    0.44366E-06   -0.59471E-06    41   0.638E-02
 997 F= -.34241750E+02 E0= -.34241750E+02  d E =-.376194E-03  mag=     1.0000
       N       E                     dE             d eps       ncg     rms          rms(c)
DAV:   1    -0.340894402906E+02    0.80189E-02   -0.25941E+00    48   0.240E+01    0.562E-01
RMM:   2    -0.340961703963E+02   -0.67301E-02   -0.69549E-02    55   0.611E+00    0.343E-01
RMM:   3    -0.340978066729E+02   -0.16363E-02   -0.17665E-02    59   0.259E+00    0.227E-01
RMM:   4    -0.340979407528E+02   -0.13408E-03   -0.19258E-03    64   0.655E-01    0.187E-01
RMM:   5    -0.340979632948E+02   -0.22542E-04   -0.24700E-04    59   0.282E-01    0.149E-01
RMM:   6    -0.340979536836E+02    0.96111E-05   -0.81385E-05    56   0.130E-01    0.552E-02
RMM:   7    -0.340979548735E+02   -0.11899E-05   -0.49253E-05    59   0.133E-01    0.684E-02
RMM:   8    -0.340979546112E+02    0.26232E-06   -0.57803E-06    42   0.584E-02
 998 F= -.34241972E+02 E0= -.34241972E+02  d E =-.598196E-03  mag=     1.0000
       N       E                     dE             d eps       ncg     rms          rms(c)
DAV:   1    -0.340972345916E+02    0.72028E-03   -0.23194E-01    48   0.723E+00    0.163E-01
RMM:   2    -0.340978780303E+02   -0.64344E-03   -0.65945E-03    57   0.177E+00    0.104E-01
RMM:   3    -0.340979433802E+02   -0.65350E-04   -0.76395E-04    57   0.756E-01    0.621E-02
RMM:   4    -0.340979487569E+02   -0.53767E-05   -0.17307E-04    55   0.327E-01    0.558E-02
RMM:   5    -0.340979509988E+02   -0.22419E-05   -0.22708E-05    48   0.108E-01    0.470E-02
RMM:   6    -0.340979512926E+02   -0.29378E-06   -0.30599E-06    36   0.571E-02
 999 F= -.34242051E+02 E0= -.34242051E+02  d E =-.677159E-03  mag=     1.0000
       N       E                     dE             d eps       ncg     rms          rms(c)
DAV:   1    -0.340981088528E+02   -0.15785E-03   -0.58103E-02    48   0.362E+00    0.122E-01
RMM:   2    -0.340982399143E+02   -0.13106E-03   -0.14795E-03    58   0.613E-01    0.524E-02
RMM:   3    -0.340982417709E+02   -0.18567E-05   -0.10523E-04    57   0.311E-01    0.471E-02
RMM:   4    -0.340982426698E+02   -0.89882E-06   -0.40138E-05    49   0.102E-01    0.478E-02
RMM:   5    -0.340982430244E+02   -0.35461E-06   -0.47059E-06    36   0.721E-02
1000 F= -.34242330E+02 E0= -.34242330E+02  d E =-.278911E-03  mag=     1.0000
