       N       E                     dE             d eps       ncg     rms          rms(c)
DAV:   1     0.100108503839E+03    0.10011E+03   -0.22786E+03    96   0.486E+02
DAV:   2     0.272994380888E+02   -0.72809E+02   -0.72399E+02    84   0.114E+02
DAV:   3    -0.129735889788E+02   -0.40273E+02   -0.39647E+02    96   0.869E+01
DAV:   4    -0.221217586539E+02   -0.91482E+01   -0.91155E+01    60   0.452E+01
DAV:   5    -0.226115654028E+02   -0.48981E+00   -0.48957E+00    60   0.159E+01    0.141E+01
RMM:   6    -0.408666304812E+02   -0.18255E+02   -0.54664E+00    49   0.141E+01    0.342E+01
RMM:   7    -0.197652224021E+02    0.21101E+02   -0.57647E+00    50   0.195E+01    0.638E+00
RMM:   8    -0.193945134106E+02    0.37071E+00   -0.43811E-01    51   0.849E+00    0.469E+00
RMM:   9    -0.197148602977E+02   -0.32035E+00   -0.32034E-01    54   0.418E+00    0.850E+00
RMM:  10    -0.193446757816E+02    0.37018E+00   -0.27880E-01    51   0.407E+00    0.447E+00
RMM:  11    -0.187627204139E+02    0.58196E+00   -0.69190E-01    48   0.529E+00    0.317E+00
RMM:  12    -0.184337814739E+02    0.32894E+00   -0.38914E-01    48   0.603E+00    0.758E+00
RMM:  13    -0.183015317304E+02    0.13225E+00   -0.55142E-02    49   0.258E+00    0.845E+00
RMM:  14    -0.182488700719E+02    0.52662E-01   -0.90072E-03    53   0.928E-01    0.913E+00
RMM:  15    -0.183339297595E+02   -0.85060E-01   -0.44848E-03    50   0.542E-01    0.842E+00
RMM:  16    -0.182673218427E+02    0.66608E-01   -0.52067E-03    48   0.835E-01    0.889E+00
RMM:  17    -0.182768457092E+02   -0.95239E-02   -0.37364E-04    51   0.223E-01    0.887E+00
RMM:  18    -0.184423569048E+02   -0.16551E+00   -0.41953E-01    48   0.652E+00    0.117E+01
RMM:  19    -0.185720742619E+02   -0.12972E+00   -0.29258E-02    53   0.190E+00    0.112E+01
RMM:  20    -0.182272059312E+02    0.34487E+00   -0.37294E-01    48   0.545E+00    0.990E+00
RMM:  21    -0.185085024610E+02   -0.28130E+00   -0.24972E-02    49   0.182E+00    0.848E+00
RMM:  22    -0.187136628992E+02   -0.20516E+00   -0.33085E-02    52   0.170E+00    0.108E+01
RMM:  23    -0.186465236594E+02    0.67139E-01   -0.19187E-01    50   0.411E+00    0.677E+00
RMM:  24    -0.187281279588E+02   -0.81604E-01   -0.18728E-02    51   0.155E+00    0.671E+00
RMM:  25    -0.187408287821E+02   -0.12701E-01   -0.41891E-02    49   0.185E+00    0.635E+00
RMM:  26    -0.187900354624E+02   -0.49207E-01   -0.32780E-02    48   0.169E+00    0.628E+00
RMM:  27    -0.191981355273E+02   -0.40810E+00   -0.27501E-01    48   0.465E+00    0.417E+00
RMM:  28    -0.192547236684E+02   -0.56588E-01   -0.63932E-02    53   0.212E+00    0.324E+00
RMM:  29    -0.192758947155E+02   -0.21171E-01   -0.73417E-03    52   0.849E-01    0.318E+00
RMM:  30    -0.194321285975E+02   -0.15623E+00   -0.51177E-02    48   0.209E+00    0.326E+00
RMM:  31    -0.193849605118E+02    0.47168E-01   -0.80309E-03    50   0.108E+00    0.296E+00
RMM:  32    -0.195379133847E+02   -0.15295E+00   -0.63367E-02    48   0.220E+00    0.493E+00
RMM:  33    -0.195088804080E+02    0.29033E-01   -0.68930E-03    51   0.996E-01    0.504E+00
RMM:  34    -0.195520376956E+02   -0.43157E-01   -0.58756E-03    50   0.669E-01    0.617E+00
RMM:  35    -0.195460653490E+02    0.59723E-02   -0.33946E-03    49   0.592E-01    0.557E+00
RMM:  36    -0.196096640434E+02   -0.63599E-01   -0.78026E-02    48   0.272E+00    0.361E+00
RMM:  37    -0.196698906295E+02   -0.60227E-01   -0.25138E-02    54   0.148E+00    0.198E+00
RMM:  38    -0.197487979162E+02   -0.78907E-01   -0.20290E-02    48   0.147E+00    0.174E+00
RMM:  39    -0.197576563412E+02   -0.88584E-02   -0.98157E-03    53   0.911E-01    0.160E+00
RMM:  40    -0.198266037890E+02   -0.68947E-01   -0.78593E-03    50   0.745E-01    0.172E+00
RMM:  41    -0.198555380176E+02   -0.28934E-01   -0.10994E-02    51   0.913E-01    0.183E+00
RMM:  42    -0.198620603626E+02   -0.65223E-02   -0.88768E-03    52   0.867E-01    0.197E+00
RMM:  43    -0.198662184021E+02   -0.41580E-02   -0.20217E-03    56   0.407E-01    0.198E+00
RMM:  44    -0.198749306646E+02   -0.87123E-02   -0.29534E-03    48   0.483E-01    0.202E+00
RMM:  45    -0.198791973048E+02   -0.42666E-02   -0.64706E-04    54   0.275E-01    0.201E+00
RMM:  46    -0.198792758549E+02   -0.78550E-04   -0.10175E-04    49   0.106E-01    0.202E+00
RMM:  47    -0.198801688160E+02   -0.89296E-03   -0.27641E-04    48   0.164E-01    0.200E+00
RMM:  48    -0.198817323377E+02   -0.15635E-02   -0.13300E-03    48   0.390E-01    0.207E+00
RMM:  49    -0.198906052166E+02   -0.88729E-02   -0.50961E-03    48   0.737E-01    0.221E+00
RMM:  50    -0.198898075712E+02    0.79765E-03   -0.17693E-03    54   0.464E-01    0.228E+00
RMM:  51    -0.198849093158E+02    0.48983E-02   -0.38205E-03    48   0.585E-01    0.228E+00
RMM:  52    -0.198864723923E+02   -0.15631E-02   -0.27087E-04    51   0.223E-01    0.226E+00
RMM:  53    -0.198867892543E+02   -0.31686E-03   -0.11780E-04    54   0.721E-02    0.224E+00
RMM:  54    -0.198878077937E+02   -0.10185E-02   -0.28063E-05    52   0.521E-02    0.224E+00
RMM:  55    -0.198860919979E+02    0.17158E-02   -0.82702E-05    48   0.940E-02    0.226E+00
RMM:  56    -0.198755854068E+02    0.10507E-01   -0.15795E-02    48   0.127E+00    0.211E+00
RMM:  57    -0.198724023379E+02    0.31831E-02   -0.49535E-03    50   0.775E-01    0.211E+00
RMM:  58    -0.198786973685E+02   -0.62950E-02   -0.65124E-04    55   0.217E-01    0.211E+00
RMM:  59    -0.198777166657E+02    0.98070E-03   -0.16020E-04    50   0.118E-01    0.211E+00
RMM:  60    -0.198827346693E+02   -0.50180E-02   -0.23463E-04    48   0.154E-01    0.211E+00
RMM:  61    -0.198838023985E+02   -0.10677E-02   -0.76769E-03    48   0.909E-01    0.237E+00
RMM:  62    -0.198909502981E+02   -0.71479E-02   -0.10339E-03    50   0.388E-01    0.233E+00
RMM:  63    -0.199017821637E+02   -0.10832E-01   -0.21073E-03    49   0.427E-01    0.230E+00
RMM:  64    -0.199098319932E+02   -0.80498E-02   -0.16179E-03    49   0.400E-01    0.227E+00
RMM:  65    -0.199189781286E+02   -0.91461E-02   -0.26519E-03    49   0.505E-01    0.223E+00
RMM:  66    -0.198542657095E+02    0.64712E-01   -0.17997E-01    48   0.397E+00    0.141E+00
RMM:  67    -0.198957653005E+02   -0.41500E-01   -0.18895E-02    48   0.183E+00    0.159E+00
RMM:  68    -0.198864972663E+02    0.92680E-02   -0.42548E-02    48   0.207E+00    0.190E+00
RMM:  69    -0.199115115030E+02   -0.25014E-01   -0.10560E-02    48   0.117E+00    0.182E+00
RMM:  70    -0.199308650258E+02   -0.19354E-01   -0.34062E-03    51   0.628E-01    0.171E+00
RMM:  71    -0.199034967764E+02    0.27368E-01   -0.43027E-02    48   0.215E+00    0.186E+00
RMM:  72    -0.199454003936E+02   -0.41904E-01   -0.41708E-03    49   0.828E-01    0.191E+00
RMM:  73    -0.199406605396E+02    0.47399E-02   -0.92104E-03    49   0.898E-01    0.210E+00
RMM:  74    -0.199475537284E+02   -0.68932E-02   -0.69439E-03    49   0.908E-01    0.206E+00
RMM:  75    -0.199373084781E+02    0.10245E-01   -0.55388E-03    53   0.739E-01    0.209E+00
RMM:  76    -0.199485942702E+02   -0.11286E-01   -0.39578E-03    48   0.610E-01    0.189E+00
RMM:  77    -0.199523217905E+02   -0.37275E-02   -0.95192E-04    50   0.366E-01    0.194E+00
RMM:  78    -0.199516265860E+02    0.69520E-03   -0.84142E-04    49   0.275E-01    0.193E+00
RMM:  79    -0.199519276823E+02   -0.30110E-03   -0.32248E-04    53   0.189E-01    0.193E+00
RMM:  80    -0.199506371941E+02    0.12905E-02   -0.16970E-04    55   0.110E-01    0.194E+00
RMM:  81    -0.198724361279E+02    0.78201E-01   -0.11085E-01    49   0.336E+00    0.146E+00
RMM:  82    -0.198984559261E+02   -0.26020E-01   -0.28075E-02    52   0.183E+00    0.144E+00
RMM:  83    -0.198919542208E+02    0.65017E-02   -0.14667E-02    54   0.112E+00    0.150E+00
RMM:  84    -0.198931900948E+02   -0.12359E-02   -0.91489E-03    49   0.950E-01    0.152E+00
RMM:  85    -0.198927157528E+02    0.47434E-03   -0.87028E-03    50   0.969E-01    0.156E+00
RMM:  86    -0.198659683992E+02    0.26747E-01   -0.10447E-02    48   0.113E+00    0.137E+00
RMM:  87    -0.198741393738E+02   -0.81710E-02   -0.98804E-02    48   0.326E+00    0.463E+00
RMM:  88    -0.198611729670E+02    0.12966E-01   -0.70764E-03    49   0.129E+00    0.459E+00
RMM:  89    -0.198771344754E+02   -0.15962E-01   -0.75281E-03    48   0.924E-01    0.386E+00
RMM:  90    -0.199218708155E+02   -0.44736E-01   -0.10544E-02    49   0.103E+00    0.221E+00
RMM:  91    -0.200089845847E+02   -0.87114E-01   -0.47383E-02    48   0.234E+00    0.591E+00
RMM:  92    -0.199693454811E+02    0.39639E-01   -0.54229E-03    49   0.970E-01    0.557E+00
RMM:  93    -0.199049541456E+02    0.64391E-01   -0.24495E-02    48   0.161E+00    0.519E+00
RMM:  94    -0.198950829554E+02    0.98712E-02   -0.80425E-02    48   0.291E+00    0.244E+00
RMM:  95    -0.199283787120E+02   -0.33296E-01   -0.15906E-02    51   0.142E+00    0.177E+00
RMM:  96    -0.199416108622E+02   -0.13232E-01   -0.34265E-03    56   0.610E-01    0.182E+00
RMM:  97    -0.199387641136E+02    0.28467E-02   -0.56905E-03    48   0.722E-01    0.178E+00
RMM:  98    -0.199277528700E+02    0.11011E-01   -0.54379E-03    48   0.724E-01    0.166E+00
RMM:  99    -0.199184478983E+02    0.93050E-02   -0.47767E-03    52   0.685E-01    0.154E+00
RMM: 100    -0.199216503876E+02   -0.32025E-02   -0.94079E-04    54   0.305E-01    0.149E+00
RMM: 101    -0.199224919157E+02   -0.84153E-03   -0.84359E-02    50   0.285E+00    0.141E+00
RMM: 102    -0.199695586433E+02   -0.47067E-01   -0.31115E-02    52   0.178E+00    0.121E+00
RMM: 103    -0.200087736002E+02   -0.39215E-01   -0.31017E-02    48   0.169E+00    0.147E+00
RMM: 104    -0.200144970129E+02   -0.57234E-02   -0.46740E-03    49   0.817E-01    0.132E+00
RMM: 105    -0.200355116697E+02   -0.21015E-01   -0.11484E-02    49   0.850E-01    0.145E+00
RMM: 106    -0.200086342898E+02    0.26877E-01   -0.18200E-02    48   0.134E+00    0.134E+00
RMM: 107    -0.200210593186E+02   -0.12425E-01   -0.25360E-03    51   0.610E-01    0.134E+00
RMM: 108    -0.200336277922E+02   -0.12568E-01   -0.66246E-03    48   0.835E-01    0.132E+00
RMM: 109    -0.200315979120E+02    0.20299E-02   -0.51686E-04    49   0.315E-01    0.128E+00
RMM: 110    -0.200125596746E+02    0.19038E-01   -0.84290E-03    48   0.822E-01    0.159E+00
RMM: 111    -0.200214191604E+02   -0.88595E-02   -0.24398E-03    49   0.553E-01    0.152E+00
RMM: 112    -0.200148615082E+02    0.65577E-02   -0.60464E-03    48   0.811E-01    0.179E+00
RMM: 113    -0.200232608480E+02   -0.83993E-02   -0.15126E-03    49   0.425E-01    0.182E+00
RMM: 114    -0.200193273969E+02    0.39335E-02   -0.17490E-03    49   0.423E-01    0.190E+00
RMM: 115    -0.200010006868E+02    0.18327E-01   -0.50160E-03    53   0.626E-01    0.212E+00
RMM: 116    -0.199941281551E+02    0.68725E-02   -0.29230E-03    48   0.532E-01    0.214E+00
RMM: 117    -0.199972232460E+02   -0.30951E-02   -0.37171E-04    50   0.233E-01    0.216E+00
RMM: 118    -0.199833654805E+02    0.13858E-01   -0.26361E-03    48   0.489E-01    0.227E+00
RMM: 119    -0.199846197188E+02   -0.12542E-02   -0.22441E-04    49   0.166E-01    0.227E+00
RMM: 120    -0.199847610064E+02   -0.14129E-03   -0.51240E-05    51   0.401E-02    0.227E+00
RMM: 121    -0.199265830721E+02    0.58178E-01   -0.82092E-03    49   0.836E-01    0.241E+00
RMM: 122    -0.199417069369E+02   -0.15124E-01   -0.24132E-03    48   0.589E-01    0.239E+00
RMM: 123    -0.199527762631E+02   -0.11069E-01   -0.16064E-03    49   0.412E-01    0.229E+00
RMM: 124    -0.199584594692E+02   -0.56832E-02   -0.17587E-03    50   0.404E-01    0.223E+00
RMM: 125    -0.199582062711E+02    0.25320E-03   -0.10458E-04    51   0.130E-01    0.224E+00
RMM: 126    -0.199768566416E+02   -0.18650E-01   -0.36125E-03    48   0.506E-01    0.199E+00
RMM: 127    -0.199779248775E+02   -0.10682E-02   -0.26482E-04    49   0.192E-01    0.200E+00
RMM: 128    -0.199801246027E+02   -0.21997E-02   -0.75116E-04    51   0.248E-01    0.189E+00
RMM: 129    -0.199781889406E+02    0.19357E-02   -0.52684E-04    49   0.251E-01    0.191E+00
RMM: 130    -0.199869995161E+02   -0.88106E-02   -0.38294E-03    51   0.613E-01    0.180E+00
RMM: 131    -0.199641122485E+02    0.22887E-01   -0.43687E-02    48   0.220E+00    0.150E+00
RMM: 132    -0.199674373002E+02   -0.33251E-02   -0.38176E-03    51   0.779E-01    0.153E+00
RMM: 133    -0.199684947212E+02   -0.10574E-02   -0.14905E-03    58   0.220E-01    0.158E+00
RMM: 134    -0.199665850784E+02    0.19096E-02   -0.56435E-04    49   0.223E-01    0.170E+00
RMM: 135    -0.199692181577E+02   -0.26331E-02   -0.58732E-04    48   0.257E-01    0.158E+00
RMM: 136    -0.201737180303E+02   -0.20450E+00   -0.73357E-02    48   0.261E+00    0.743E+00
RMM: 137    -0.202000806114E+02   -0.26363E-01   -0.19306E-02    48   0.191E+00    0.713E+00
RMM: 138    -0.201644944883E+02    0.35586E-01   -0.39664E-03    54   0.484E-01    0.726E+00
RMM: 139    -0.199521227148E+02    0.21237E+00   -0.74694E-02    48   0.275E+00    0.317E+00
RMM: 140    -0.200021960386E+02   -0.50073E-01   -0.29046E-02    49   0.197E+00    0.208E+00
RMM: 141    -0.200038299943E+02   -0.16340E-02   -0.45387E-02    50   0.207E+00    0.107E+00
RMM: 142    -0.200564800132E+02   -0.52650E-01   -0.15859E-02    50   0.133E+00    0.296E+00
RMM: 143    -0.200002766304E+02    0.56203E-01   -0.37740E-02    48   0.200E+00    0.126E+00
RMM: 144    -0.200307465700E+02   -0.30470E-01   -0.25124E-03    48   0.741E-01    0.128E+00
RMM: 145    -0.200356305253E+02   -0.48840E-02   -0.32827E-03    52   0.474E-01    0.188E+00
RMM: 146    -0.200331735505E+02    0.24570E-02   -0.13472E-02    50   0.109E+00    0.360E+00
RMM: 147    -0.200331491283E+02    0.24422E-04   -0.16169E-03    48   0.597E-01    0.377E+00
RMM: 148    -0.200168006864E+02    0.16348E-01   -0.98297E-04    48   0.359E-01    0.275E+00
RMM: 149    -0.200383105379E+02   -0.21510E-01   -0.24298E-03    48   0.504E-01    0.356E+00
RMM: 150    -0.200277678153E+02    0.10543E-01   -0.75784E-04    49   0.292E-01    0.327E+00
RMM: 151    -0.200274164209E+02    0.35139E-03   -0.96999E-04    51   0.309E-01    0.326E+00
RMM: 152    -0.200282084967E+02   -0.79208E-03   -0.45919E-04    55   0.207E-01    0.325E+00
RMM: 153    -0.200275778567E+02    0.63064E-03   -0.90109E-05    54   0.857E-02    0.324E+00
RMM: 154    -0.200271631441E+02    0.41471E-03   -0.76080E-06    41   0.283E-02    0.323E+00
RMM: 155    -0.200294948803E+02   -0.23317E-02   -0.83652E-04    49   0.298E-01    0.365E+00
RMM: 156    -0.200131091160E+02    0.16386E-01   -0.14719E-03    48   0.388E-01    0.278E+00
RMM: 157    -0.200258993932E+02   -0.12790E-01   -0.11123E-03    49   0.368E-01    0.319E+00
RMM: 158    -0.200236467811E+02    0.22526E-02   -0.24931E-04    54   0.162E-01    0.313E+00
RMM: 159    -0.200250992810E+02   -0.14525E-02   -0.36242E-05    48   0.683E-02    0.312E+00
RMM: 160    -0.200336726359E+02   -0.85734E-02   -0.15033E-02    48   0.123E+00    0.321E+00
RMM: 161    -0.200293384108E+02    0.43342E-02   -0.16766E-02    51   0.133E+00    0.329E+00
RMM: 162    -0.200255088061E+02    0.38296E-02   -0.14181E-03    53   0.392E-01    0.288E+00
RMM: 163    -0.200370508603E+02   -0.11542E-01   -0.89355E-04    53   0.288E-01    0.306E+00
RMM: 164    -0.200479989786E+02   -0.10948E-01   -0.13537E-03    51   0.369E-01    0.360E+00
RMM: 165    -0.200359839302E+02    0.12015E-01   -0.72450E-04    52   0.289E-01    0.317E+00
RMM: 166    -0.200385876615E+02   -0.26037E-02   -0.28012E-03    52   0.536E-01    0.284E+00
RMM: 167    -0.200379591931E+02    0.62847E-03   -0.13062E-03    54   0.342E-01    0.230E+00
RMM: 168    -0.200472368607E+02   -0.92777E-02   -0.36695E-04    49   0.216E-01    0.248E+00
RMM: 169    -0.200454830715E+02    0.17538E-02   -0.94136E-05    55   0.877E-02    0.244E+00
RMM: 170    -0.200465758567E+02   -0.10928E-02   -0.26069E-04    48   0.152E-01    0.261E+00
RMM: 171    -0.200251323534E+02    0.21444E-01   -0.45535E-02    49   0.207E+00    0.123E+00
RMM: 172    -0.200421849685E+02   -0.17053E-01   -0.88963E-03    54   0.108E+00    0.122E+00
RMM: 173    -0.200452819019E+02   -0.30969E-02   -0.90512E-04    55   0.245E-01    0.122E+00
RMM: 174    -0.200463713530E+02   -0.10895E-02   -0.21390E-03    48   0.465E-01    0.117E+00
RMM: 175    -0.200472871662E+02   -0.91581E-03   -0.33184E-03    49   0.592E-01    0.117E+00
RMM: 176    -0.200348751462E+02    0.12412E-01   -0.26031E-03    49   0.515E-01    0.126E+00
RMM: 177    -0.200156767495E+02    0.19198E-01   -0.13345E-02    48   0.114E+00    0.137E+00
RMM: 178    -0.200149928853E+02    0.68386E-03   -0.18487E-03    49   0.529E-01    0.139E+00
RMM: 179    -0.200132053666E+02    0.17875E-02   -0.91498E-04    54   0.214E-01    0.139E+00
RMM: 180    -0.200077728655E+02    0.54325E-02   -0.15845E-03    48   0.392E-01    0.142E+00
RMM: 181    -0.200068961753E+02    0.87669E-03   -0.35241E-03    49   0.587E-01    0.152E+00
RMM: 182    -0.200093186043E+02   -0.24224E-02   -0.33155E-04    50   0.238E-01    0.150E+00
RMM: 183    -0.200066296299E+02    0.26890E-02   -0.17187E-03    48   0.386E-01    0.154E+00
RMM: 184    -0.200068507845E+02   -0.22115E-03   -0.25199E-04    52   0.191E-01    0.155E+00
RMM: 185    -0.200097505730E+02   -0.28998E-02   -0.97189E-04    48   0.337E-01    0.151E+00
RMM: 186    -0.199864716886E+02    0.23279E-01   -0.85051E-03    48   0.873E-01    0.177E+00
RMM: 187    -0.200302120161E+02   -0.43740E-01   -0.28439E-02    48   0.161E+00    0.129E+00
RMM: 188    -0.200561991670E+02   -0.25987E-01   -0.24576E-02    50   0.150E+00    0.947E-01
RMM: 189    -0.200601537517E+02   -0.39546E-02   -0.20786E-03    54   0.527E-01    0.958E-01
RMM: 190    -0.200598005665E+02    0.35319E-03   -0.49291E-04    58   0.115E-01    0.962E-01
RMM: 191    -0.200676949096E+02   -0.78943E-02   -0.13718E-02    48   0.116E+00    0.203E+00
RMM: 192    -0.200718306963E+02   -0.41358E-02   -0.35462E-03    48   0.736E-01    0.300E+00
RMM: 193    -0.200572718654E+02    0.14559E-01   -0.76272E-04    48   0.368E-01    0.232E+00
RMM: 194    -0.200551355498E+02    0.21363E-02   -0.34338E-03    48   0.574E-01    0.140E+00
RMM: 195    -0.200687514264E+02   -0.13616E-01   -0.53312E-04    48   0.333E-01    0.155E+00
RMM: 196    -0.201012814016E+02   -0.32530E-01   -0.19317E-02    48   0.134E+00    0.544E+00
RMM: 197    -0.200622169417E+02    0.39064E-01   -0.39259E-03    48   0.964E-01    0.539E+00
RMM: 198    -0.200278092517E+02    0.34408E-01   -0.50044E-03    48   0.742E-01    0.366E+00
RMM: 199    -0.200475486900E+02   -0.19739E-01   -0.86753E-04    48   0.376E-01    0.335E+00
RMM: 200    -0.200521038233E+02   -0.45551E-02   -0.30292E-04    50   0.191E-01
   1 F= -.20092827E+02 E0= -.20080538E+02  d E =-.200928E+02  mag=    -0.9125
       N       E                     dE             d eps       ncg     rms          rms(c)
DAV:   1    -0.205141110589E+02   -0.46656E+00   -0.55130E+01    48   0.950E+01    0.812E+00
RMM:   2    -0.179197926887E+02    0.25943E+01   -0.77432E+00    48   0.225E+01    0.943E+00
RMM:   3    -0.193462006698E+02   -0.14264E+01   -0.12466E+00    48   0.957E+00    0.542E+00
RMM:   4    -0.190559522720E+02    0.29025E+00   -0.46724E-01    50   0.642E+00    0.437E+00
RMM:   5    -0.191182992054E+02   -0.62347E-01   -0.23203E-01    50   0.400E+00    0.347E+00
RMM:   6    -0.192572294252E+02   -0.13893E+00   -0.99293E-02    48   0.293E+00    0.270E+00
RMM:   7    -0.195756847166E+02   -0.31846E+00   -0.11030E-01    48   0.303E+00    0.228E+00
RMM:   8    -0.197894614194E+02   -0.21378E+00   -0.68326E-02    49   0.249E+00    0.206E+00
RMM:   9    -0.199633118183E+02   -0.17385E+00   -0.62006E-02    49   0.235E+00    0.141E+00
RMM:  10    -0.202224035119E+02   -0.25909E+00   -0.13585E-01    48   0.333E+00    0.847E-01
RMM:  11    -0.203625293020E+02   -0.14013E+00   -0.28248E-02    52   0.165E+00    0.756E-01
RMM:  12    -0.203676859843E+02   -0.51567E-02   -0.42537E-03    49   0.689E-01    0.712E-01
RMM:  13    -0.204168297764E+02   -0.49144E-01   -0.30562E-03    50   0.515E-01    0.699E-01
RMM:  14    -0.205929872782E+02   -0.17616E+00   -0.34460E-02    48   0.166E+00    0.469E-01
RMM:  15    -0.207283196240E+02   -0.13533E+00   -0.33168E-02    48   0.155E+00    0.173E-01
RMM:  16    -0.207776747703E+02   -0.49355E-01   -0.61259E-03    52   0.710E-01    0.111E-01
RMM:  17    -0.208061178589E+02   -0.28443E-01   -0.26023E-03    52   0.353E-01    0.938E-02
RMM:  18    -0.208248688066E+02   -0.18751E-01   -0.36895E-04    50   0.216E-01    0.536E-02
RMM:  19    -0.208578265323E+02   -0.32958E-01   -0.17510E-03    48   0.311E-01    0.435E-02
RMM:  20    -0.208803271081E+02   -0.22501E-01   -0.99959E-04    52   0.191E-01    0.358E-02
RMM:  21    -0.208931027496E+02   -0.12776E-01   -0.53294E-04    54   0.166E-01    0.280E-02
RMM:  22    -0.209061145030E+02   -0.13012E-01   -0.30831E-04    55   0.111E-01    0.273E-02
RMM:  23    -0.209101899877E+02   -0.40755E-02   -0.66768E-05    53   0.656E-02    0.195E-02
RMM:  24    -0.209126898607E+02   -0.24999E-02   -0.34936E-05    50   0.468E-02    0.134E-02
RMM:  25    -0.209162995961E+02   -0.36097E-02   -0.43027E-05    49   0.558E-02    0.892E-03
RMM:  26    -0.209186160440E+02   -0.23164E-02   -0.30309E-05    49   0.506E-02    0.626E-03
RMM:  27    -0.209195730226E+02   -0.95698E-03   -0.63055E-06    40   0.236E-02    0.563E-03
RMM:  28    -0.209197798248E+02   -0.20680E-03   -0.28555E-06    35   0.179E-02    0.486E-03
RMM:  29    -0.209202449186E+02   -0.46509E-03   -0.22475E-06    33   0.166E-02    0.273E-03
RMM:  30    -0.209206648951E+02   -0.41998E-03   -0.11312E-06    32   0.117E-02    0.180E-03
RMM:  31    -0.209208923567E+02   -0.22746E-03   -0.15891E-06    33   0.109E-02    0.164E-03
RMM:  32    -0.209211068752E+02   -0.21452E-03   -0.17211E-06    33   0.116E-02    0.132E-03
RMM:  33    -0.209212566450E+02   -0.14977E-03   -0.13704E-06    31   0.132E-02    0.745E-04
RMM:  34    -0.209212898811E+02   -0.33236E-04   -0.51017E-07    28   0.102E-02    0.648E-04
RMM:  35    -0.209213061530E+02   -0.16272E-04   -0.24879E-07    22   0.546E-03    0.489E-04
RMM:  36    -0.209213288189E+02   -0.22666E-04   -0.14395E-07    25   0.540E-03    0.342E-04
RMM:  37    -0.209213565054E+02   -0.27686E-04   -0.73088E-08    22   0.375E-03    0.173E-04
RMM:  38    -0.209213713320E+02   -0.14827E-04   -0.40789E-08    23   0.319E-03    0.144E-04
RMM:  39    -0.209213784495E+02   -0.71175E-05   -0.17257E-08    16   0.211E-03    0.102E-04
RMM:  40    -0.209213862814E+02   -0.78319E-05   -0.12503E-08    18   0.227E-03    0.674E-05
RMM:  41    -0.209213898571E+02   -0.35757E-05   -0.24649E-09     9   0.148E-03    0.378E-05
RMM:  42    -0.209213909108E+02   -0.10537E-05    0.00000E+00     5   0.141E-03    0.278E-05
RMM:  43    -0.209213915957E+02   -0.68492E-06    0.00000E+00     5   0.142E-03
   2 F= -.20960651E+02 E0= -.20960651E+02  d E =-.867823E+00  mag=    -3.0000
       N       E                     dE             d eps       ncg     rms          rms(c)
DAV:   1    -0.209222772349E+02   -0.88632E-03   -0.14737E-02    48   0.152E+00    0.519E-02
RMM:   2    -0.209221845895E+02    0.92645E-04   -0.32009E-04    48   0.217E-01    0.559E-02
RMM:   3    -0.209222482421E+02   -0.63653E-04   -0.48184E-05    51   0.659E-02    0.250E-02
RMM:   4    -0.209222560698E+02   -0.78277E-05   -0.71602E-06    45   0.313E-02    0.138E-02
RMM:   5    -0.209222574609E+02   -0.13911E-05   -0.52370E-06    41   0.219E-02    0.955E-03
RMM:   6    -0.209222607452E+02   -0.32843E-05   -0.25291E-06    34   0.192E-02    0.785E-03
RMM:   7    -0.209222703197E+02   -0.95745E-05   -0.24019E-06    34   0.166E-02    0.661E-03
RMM:   8    -0.209222706154E+02   -0.29569E-06   -0.29989E-06    37   0.171E-02
   3 F= -.20961552E+02 E0= -.20961552E+02  d E =-.868725E+00  mag=    -3.0000
       N       E                     dE             d eps       ncg     rms          rms(c)
DAV:   1    -0.207174607862E+02    0.20481E+00   -0.56788E+01    48   0.960E+01    0.286E+00
RMM:   2    -0.208808432096E+02   -0.16338E+00   -0.14312E+00    48   0.141E+01    0.192E+00
RMM:   3    -0.208997676544E+02   -0.18924E-01   -0.96920E-02    52   0.315E+00    0.115E+00
RMM:   4    -0.209068438231E+02   -0.70762E-02   -0.24246E-02    51   0.152E+00    0.674E-01
RMM:   5    -0.209091118324E+02   -0.22680E-02   -0.17369E-02    52   0.115E+00    0.272E-01
RMM:   6    -0.209179160696E+02   -0.88042E-02   -0.36470E-03    51   0.562E-01    0.118E-01
RMM:   7    -0.209233869511E+02   -0.54709E-02   -0.70742E-04    51   0.287E-01    0.624E-02
RMM:   8    -0.209258346926E+02   -0.24477E-02   -0.25182E-04    53   0.133E-01    0.330E-02
RMM:   9    -0.209270450898E+02   -0.12104E-02   -0.68673E-05    54   0.672E-02    0.212E-02
RMM:  10    -0.209282633942E+02   -0.12183E-02   -0.38250E-05    51   0.440E-02    0.121E-02
RMM:  11    -0.209293009173E+02   -0.10375E-02   -0.18215E-05    50   0.316E-02    0.667E-03
RMM:  12    -0.209298522513E+02   -0.55133E-03   -0.35613E-06    36   0.170E-02    0.405E-03
RMM:  13    -0.209303836921E+02   -0.53144E-03   -0.37935E-06    36   0.160E-02    0.328E-03
RMM:  14    -0.209307266394E+02   -0.34295E-03   -0.20449E-06    33   0.124E-02    0.228E-03
RMM:  15    -0.209310769649E+02   -0.35033E-03   -0.20029E-06    33   0.113E-02    0.210E-03
RMM:  16    -0.209315264623E+02   -0.44950E-03   -0.34471E-06    37   0.125E-02    0.140E-03
RMM:  17    -0.209319755651E+02   -0.44910E-03   -0.52182E-06    39   0.137E-02    0.886E-04
RMM:  18    -0.209321213698E+02   -0.14580E-03   -0.17570E-06    33   0.106E-02    0.697E-04
RMM:  19    -0.209321742967E+02   -0.52927E-04   -0.66705E-07    24   0.807E-03    0.578E-04
RMM:  20    -0.209322106239E+02   -0.36327E-04   -0.45125E-07    26   0.751E-03    0.481E-04
RMM:  21    -0.209322730375E+02   -0.62414E-04   -0.59741E-07    28   0.676E-03    0.301E-04
RMM:  22    -0.209323081681E+02   -0.35131E-04   -0.46128E-07    23   0.738E-03    0.232E-04
RMM:  23    -0.209323211280E+02   -0.12960E-04   -0.31332E-07    22   0.599E-03    0.178E-04
RMM:  24    -0.209323278629E+02   -0.67349E-05   -0.18096E-07    21   0.508E-03    0.120E-04
RMM:  25    -0.209323364823E+02   -0.86194E-05   -0.12011E-07    19   0.374E-03    0.945E-05
RMM:  26    -0.209323435220E+02   -0.70398E-05   -0.80129E-08    18   0.350E-03    0.896E-05
RMM:  27    -0.209323463102E+02   -0.27882E-05   -0.51910E-08    17   0.274E-03    0.562E-05
RMM:  28    -0.209323475490E+02   -0.12388E-05   -0.28474E-08    14   0.250E-03    0.418E-05
RMM:  29    -0.209323482320E+02   -0.68298E-06   -0.15005E-08    12   0.202E-03
   4 F= -.20969973E+02 E0= -.20969973E+02  d E =-.842072E-02  mag=    -3.0000
       N       E                     dE             d eps       ncg     rms          rms(c)
DAV:   1    -0.209787395300E+02   -0.46392E-01   -0.12206E+01    48   0.448E+01    0.133E+00
RMM:   2    -0.210059439069E+02   -0.27204E-01   -0.26775E-01    48   0.635E+00    0.668E-01
RMM:   3    -0.210146439811E+02   -0.87001E-02   -0.15483E-02    50   0.152E+00    0.365E-01
RMM:   4    -0.210145581724E+02    0.85809E-04   -0.46221E-03    51   0.572E-01    0.291E-01
RMM:   5    -0.210136905103E+02    0.86766E-03   -0.25951E-03    50   0.471E-01    0.174E-01
RMM:   6    -0.210154846285E+02   -0.17941E-02   -0.63936E-04    49   0.225E-01    0.547E-02
RMM:   7    -0.210175183533E+02   -0.20337E-02   -0.29874E-04    53   0.140E-01    0.274E-02
RMM:   8    -0.210186074346E+02   -0.10891E-02   -0.75105E-05    54   0.627E-02    0.173E-02
RMM:   9    -0.210193403010E+02   -0.73287E-03   -0.28805E-05    51   0.374E-02    0.124E-02
RMM:  10    -0.210197818993E+02   -0.44160E-03   -0.10877E-05    49   0.271E-02    0.684E-03
RMM:  11    -0.210200209494E+02   -0.23905E-03   -0.34754E-06    36   0.149E-02    0.582E-03
RMM:  12    -0.210201940182E+02   -0.17307E-03   -0.17857E-06    32   0.129E-02    0.544E-03
RMM:  13    -0.210204357598E+02   -0.24174E-03   -0.30595E-06    37   0.150E-02    0.459E-03
RMM:  14    -0.210208271800E+02   -0.39142E-03   -0.83508E-06    43   0.210E-02    0.354E-03
RMM:  15    -0.210210983309E+02   -0.27115E-03   -0.56412E-06    39   0.197E-02    0.171E-03
RMM:  16    -0.210211548838E+02   -0.56553E-04   -0.93513E-07    30   0.123E-02    0.885E-04
RMM:  17    -0.210211592391E+02   -0.43553E-05   -0.42945E-07    28   0.901E-03    0.642E-04
RMM:  18    -0.210211654368E+02   -0.61977E-05   -0.23087E-07    27   0.532E-03    0.453E-04
RMM:  19    -0.210211924444E+02   -0.27008E-04   -0.18894E-07    23   0.509E-03    0.388E-04
RMM:  20    -0.210212485857E+02   -0.56141E-04   -0.37854E-07    29   0.581E-03    0.269E-04
RMM:  21    -0.210212709562E+02   -0.22371E-04   -0.23101E-07    27   0.607E-03    0.210E-04
RMM:  22    -0.210212821087E+02   -0.11152E-04   -0.16061E-07    20   0.414E-03    0.129E-04
RMM:  23    -0.210212942848E+02   -0.12176E-04   -0.12480E-07    23   0.432E-03    0.105E-04
RMM:  24    -0.210213037670E+02   -0.94822E-05   -0.10675E-07    21   0.336E-03    0.842E-05
RMM:  25    -0.210213070562E+02   -0.32892E-05   -0.66543E-08    19   0.332E-03    0.496E-05
RMM:  26    -0.210213083502E+02   -0.12940E-05   -0.41339E-08    14   0.241E-03    0.408E-05
RMM:  27    -0.210213087534E+02   -0.40317E-06   -0.22584E-08    13   0.238E-03
   5 F= -.21059737E+02 E0= -.21059737E+02  d E =-.981852E-01  mag=    -3.0000
       N       E                     dE             d eps       ncg     rms          rms(c)
DAV:   1    -0.211259472083E+02   -0.10464E+00   -0.57771E+01    48   0.945E+01    0.288E+00
RMM:   2    -0.213196019919E+02   -0.19365E+00   -0.13001E+00    48   0.123E+01    0.315E+00
RMM:   3    -0.212589305013E+02    0.60671E-01   -0.13827E-01    52   0.301E+00    0.854E-01
RMM:   4    -0.212795709609E+02   -0.20640E-01   -0.16426E-02    48   0.144E+00    0.480E-01
RMM:   5    -0.213035546587E+02   -0.23984E-01   -0.12849E-02    52   0.952E-01    0.276E-01
RMM:   6    -0.213170347736E+02   -0.13480E-01   -0.31401E-03    52   0.536E-01    0.214E-01
RMM:   7    -0.213220503017E+02   -0.50155E-02   -0.14555E-03    48   0.381E-01    0.160E-01
RMM:   8    -0.213283069276E+02   -0.62566E-02   -0.25190E-03    48   0.483E-01    0.758E-02
RMM:   9    -0.213323787069E+02   -0.40718E-02   -0.64393E-04    53   0.240E-01    0.287E-02
RMM:  10    -0.213330424275E+02   -0.66372E-03   -0.12913E-04    50   0.108E-01    0.203E-02
RMM:  11    -0.213334061217E+02   -0.36369E-03   -0.33186E-05    49   0.665E-02    0.132E-02
RMM:  12    -0.213340103412E+02   -0.60422E-03   -0.99984E-06    44   0.303E-02    0.944E-03
RMM:  13    -0.213356604261E+02   -0.16501E-02   -0.26892E-05    47   0.440E-02    0.629E-03
RMM:  14    -0.213363984210E+02   -0.73799E-03   -0.10508E-05    46   0.238E-02    0.398E-03
RMM:  15    -0.213371257817E+02   -0.72736E-03   -0.51373E-06    40   0.148E-02    0.241E-03
RMM:  16    -0.213375692957E+02   -0.44351E-03   -0.19821E-06    35   0.118E-02    0.190E-03
RMM:  17    -0.213380368054E+02   -0.46751E-03   -0.21517E-06    35   0.921E-03    0.152E-03
RMM:  18    -0.213385710635E+02   -0.53426E-03   -0.33547E-06    38   0.113E-02    0.995E-04
RMM:  19    -0.213389114476E+02   -0.34038E-03   -0.28497E-06    37   0.113E-02    0.611E-04
RMM:  20    -0.213390731850E+02   -0.16174E-03   -0.21065E-06    35   0.105E-02    0.425E-04
RMM:  21    -0.213391076206E+02   -0.34436E-04   -0.53886E-07    27   0.871E-03    0.338E-04
RMM:  22    -0.213391409905E+02   -0.33370E-04   -0.31877E-07    27   0.696E-03    0.238E-04
RMM:  23    -0.213391682917E+02   -0.27301E-04   -0.18780E-07    24   0.545E-03    0.153E-04
RMM:  24    -0.213391900844E+02   -0.21793E-04   -0.11595E-07    23   0.438E-03    0.117E-04
RMM:  25    -0.213392006624E+02   -0.10578E-04   -0.66016E-08    20   0.339E-03    0.803E-05
RMM:  26    -0.213392138446E+02   -0.13182E-04   -0.51824E-08    20   0.298E-03    0.760E-05
RMM:  27    -0.213392180865E+02   -0.42419E-05   -0.31456E-08    17   0.252E-03    0.501E-05
RMM:  28    -0.213392196862E+02   -0.15998E-05   -0.14362E-08    13   0.190E-03    0.328E-05
RMM:  29    -0.213392213382E+02   -0.16519E-05   -0.73479E-09    11   0.175E-03    0.318E-05
RMM:  30    -0.213392222721E+02   -0.93388E-06   -0.18424E-09     8   0.157E-03
   6 F= -.21376215E+02 E0= -.21376215E+02  d E =-.316477E+00  mag=    -3.0000
       N       E                     dE             d eps       ncg     rms          rms(c)
DAV:   1    -0.190230485408E+02    0.23162E+01   -0.53739E+02    48   0.294E+02    0.113E+01
RMM:   2    -0.238116123536E+02   -0.47886E+01   -0.31911E+01    48   0.526E+01    0.141E+01
RMM:   3    -0.214191045346E+02    0.23925E+01   -0.24882E+00    49   0.150E+01    0.801E+00
RMM:   4    -0.203489836632E+02    0.10701E+01   -0.20406E+00    51   0.117E+01    0.503E+00
RMM:   5    -0.205031058300E+02   -0.15412E+00   -0.28841E-01    50   0.511E+00    0.313E+00
RMM:   6    -0.212855319995E+02   -0.78243E+00   -0.52607E-01    50   0.593E+00    0.241E+00
RMM:   7    -0.216471993753E+02   -0.36167E+00   -0.13885E-01    49   0.404E+00    0.128E+00
RMM:   8    -0.219863713204E+02   -0.33917E+00   -0.87442E-02    48   0.240E+00    0.980E-01
RMM:   9    -0.223798606026E+02   -0.39349E+00   -0.77350E-02    48   0.238E+00    0.756E-01
RMM:  10    -0.225238667472E+02   -0.14401E+00   -0.38564E-02    52   0.150E+00    0.414E-01
RMM:  11    -0.225844390302E+02   -0.60572E-01   -0.79039E-03    53   0.704E-01    0.309E-01
RMM:  12    -0.226578341196E+02   -0.73395E-01   -0.62710E-03    48   0.585E-01    0.213E-01
RMM:  13    -0.227392583464E+02   -0.81424E-01   -0.69879E-03    48   0.582E-01    0.141E-01
RMM:  14    -0.227959356460E+02   -0.56677E-01   -0.48829E-03    50   0.451E-01    0.111E-01
RMM:  15    -0.228386853129E+02   -0.42750E-01   -0.35054E-03    48   0.346E-01    0.781E-02
RMM:  16    -0.228703977156E+02   -0.31712E-01   -0.43888E-03    50   0.368E-01    0.602E-02
RMM:  17    -0.228864140149E+02   -0.16016E-01   -0.20073E-03    51   0.244E-01    0.450E-02
RMM:  18    -0.228963050473E+02   -0.98910E-02   -0.68172E-04    54   0.137E-01    0.242E-02
RMM:  19    -0.229004550312E+02   -0.41500E-02   -0.86185E-05    51   0.653E-02    0.184E-02
RMM:  20    -0.229040222024E+02   -0.35672E-02   -0.25974E-05    48   0.382E-02    0.160E-02
RMM:  21    -0.229070701504E+02   -0.30479E-02   -0.22065E-05    45   0.290E-02    0.121E-02
RMM:  22    -0.229095767178E+02   -0.25066E-02   -0.23474E-05    49   0.242E-02    0.767E-03
RMM:  23    -0.229107716220E+02   -0.11949E-02   -0.54669E-06    39   0.155E-02    0.548E-03
RMM:  24    -0.229114236307E+02   -0.65201E-03   -0.19813E-06    33   0.134E-02    0.417E-03
RMM:  25    -0.229118984498E+02   -0.47482E-03   -0.28551E-06    35   0.125E-02    0.320E-03
RMM:  26    -0.229120410196E+02   -0.14257E-03   -0.15697E-06    32   0.128E-02    0.204E-03
RMM:  27    -0.229121660366E+02   -0.12502E-03   -0.11415E-06    31   0.117E-02    0.152E-03
RMM:  28    -0.229122790920E+02   -0.11306E-03   -0.85828E-07    30   0.110E-02    0.127E-03
RMM:  29    -0.229124272371E+02   -0.14815E-03   -0.70627E-07    30   0.104E-02    0.815E-04
RMM:  30    -0.229124927002E+02   -0.65463E-04   -0.31781E-07    28   0.852E-03    0.587E-04
RMM:  31    -0.229125349467E+02   -0.42247E-04   -0.22714E-07    28   0.625E-03    0.376E-04
RMM:  32    -0.229125466022E+02   -0.11655E-04   -0.10732E-07    26   0.518E-03    0.284E-04
RMM:  33    -0.229125676121E+02   -0.21010E-04   -0.73751E-08    28   0.438E-03    0.200E-04
RMM:  34    -0.229125844687E+02   -0.16857E-04   -0.51494E-08    27   0.419E-03    0.118E-04
RMM:  35    -0.229125957901E+02   -0.11321E-04   -0.33279E-08    24   0.339E-03    0.844E-05
RMM:  36    -0.229126024412E+02   -0.66511E-05   -0.10752E-08    19   0.226E-03    0.672E-05
RMM:  37    -0.229126072148E+02   -0.47737E-05   -0.90705E-10     9   0.150E-03    0.318E-05
RMM:  38    -0.229126091445E+02   -0.19297E-05    0.00000E+00     8   0.145E-03    0.164E-05
RMM:  39    -0.229126098785E+02   -0.73392E-06    0.00000E+00     7   0.146E-03
   7 F= -.22944171E+02 E0= -.22944171E+02  d E =-.188443E+01  mag=    -1.0000
       N       E                     dE             d eps       ncg     rms          rms(c)
DAV:   1    -0.986689105929E+01    0.13046E+02   -0.18553E+03    48   0.502E+02    0.330E+01
RMM:   2    -0.221304447496E+02   -0.12264E+02   -0.12579E+02    48   0.114E+02    0.874E+00
RMM:   3    -0.221113047830E+02    0.19140E-01   -0.55014E+00    50   0.264E+01    0.677E+00
RMM:   4    -0.219611363308E+02    0.15017E+00   -0.14876E+00    48   0.151E+01    0.337E+00
RMM:   5    -0.219842108986E+02   -0.23075E-01   -0.52626E-01    52   0.683E+00    0.191E+00
RMM:   6    -0.220792027438E+02   -0.94992E-01   -0.14962E-01    51   0.395E+00    0.901E-01
RMM:   7    -0.221705326359E+02   -0.91330E-01   -0.43338E-02    52   0.200E+00    0.490E-01
RMM:   8    -0.222376010316E+02   -0.67068E-01   -0.15108E-02    51   0.107E+00    0.175E-01
RMM:   9    -0.222660226376E+02   -0.28422E-01   -0.22678E-03    50   0.413E-01    0.114E-01
RMM:  10    -0.222943627447E+02   -0.28340E-01   -0.20224E-03    49   0.347E-01    0.859E-02
RMM:  11    -0.223224363444E+02   -0.28074E-01   -0.11872E-03    49   0.206E-01    0.374E-02
RMM:  12    -0.223356525779E+02   -0.13216E-01   -0.49093E-04    51   0.127E-01    0.299E-02
RMM:  13    -0.223572509008E+02   -0.21598E-01   -0.79543E-04    48   0.158E-01    0.208E-02
RMM:  14    -0.223669992348E+02   -0.97483E-02   -0.62579E-04    51   0.119E-01    0.125E-02
RMM:  15    -0.223702068458E+02   -0.32076E-02   -0.20358E-04    49   0.752E-02    0.737E-03
RMM:  16    -0.223728590107E+02   -0.26522E-02   -0.92789E-05    47   0.478E-02    0.500E-03
RMM:  17    -0.223741202019E+02   -0.12612E-02   -0.41249E-05    44   0.324E-02    0.311E-03
RMM:  18    -0.223747739391E+02   -0.65374E-03   -0.13993E-05    40   0.190E-02    0.227E-03
RMM:  19    -0.223753172881E+02   -0.54335E-03   -0.87863E-06    41   0.154E-02    0.155E-03
RMM:  20    -0.223755787884E+02   -0.26150E-03   -0.37494E-06    36   0.123E-02    0.846E-04
RMM:  21    -0.223756883306E+02   -0.10954E-03   -0.10008E-06    31   0.963E-03    0.748E-04
RMM:  22    -0.223757883836E+02   -0.10005E-03   -0.74600E-07    31   0.900E-03    0.553E-04
RMM:  23    -0.223758548648E+02   -0.66481E-04   -0.63469E-07    30   0.750E-03    0.329E-04
RMM:  24    -0.223758834867E+02   -0.28622E-04   -0.36618E-07    27   0.692E-03    0.262E-04
RMM:  25    -0.223759052719E+02   -0.21785E-04   -0.23439E-07    27   0.488E-03    0.181E-04
RMM:  26    -0.223759242028E+02   -0.18931E-04   -0.15745E-07    25   0.427E-03    0.104E-04
RMM:  27    -0.223759290584E+02   -0.48557E-05   -0.83948E-08    22   0.326E-03    0.781E-05
RMM:  28    -0.223759317784E+02   -0.27200E-05   -0.44681E-08    16   0.256E-03    0.551E-05
RMM:  29    -0.223759340832E+02   -0.23048E-05   -0.27639E-08    16   0.224E-03    0.391E-05
RMM:  30    -0.223759353295E+02   -0.12463E-05   -0.17141E-08    16   0.208E-03    0.318E-05
RMM:  31    -0.223759357990E+02   -0.46954E-06   -0.10245E-08    14   0.188E-03
   8 F= -.22395032E+02 E0= -.22395032E+02  d E =-.133529E+01  mag=    -1.0000
       N       E                     dE             d eps       ncg     rms          rms(c)
DAV:   1    -0.194916202321E+02    0.28843E+01   -0.12043E+03    48   0.438E+02    0.144E+01
RMM:   2    -0.237518522963E+02   -0.42602E+01   -0.64508E+01    48   0.812E+01    0.108E+01
RMM:   3    -0.235181663803E+02    0.23369E+00   -0.33062E+00    48   0.257E+01    0.843E+00
RMM:   4    -0.234049912285E+02    0.11318E+00   -0.71920E-01    52   0.763E+00    0.503E+00
RMM:   5    -0.233593939203E+02    0.45597E-01   -0.50878E-01    51   0.649E+00    0.208E+00
RMM:   6    -0.233573020238E+02    0.20919E-02   -0.21733E-01    55   0.434E+00    0.123E+00
RMM:   7    -0.233776420971E+02   -0.20340E-01   -0.21059E-02    54   0.134E+00    0.818E-01
RMM:   8    -0.234396265656E+02   -0.61984E-01   -0.35936E-02    53   0.143E+00    0.562E-01
RMM:   9    -0.234668519281E+02   -0.27225E-01   -0.25115E-02    52   0.140E+00    0.269E-01
RMM:  10    -0.234801077449E+02   -0.13256E-01   -0.57320E-03    57   0.464E-01    0.209E-01
RMM:  11    -0.235054581549E+02   -0.25350E-01   -0.46957E-03    55   0.506E-01    0.137E-01
RMM:  12    -0.235313670850E+02   -0.25909E-01   -0.45195E-03    53   0.452E-01    0.602E-02
RMM:  13    -0.235377937041E+02   -0.64266E-02   -0.39807E-04    54   0.181E-01    0.410E-02
RMM:  14    -0.235466339073E+02   -0.88402E-02   -0.33881E-04    55   0.107E-01    0.277E-02
RMM:  15    -0.235583303247E+02   -0.11696E-01   -0.29279E-04    54   0.102E-01    0.260E-02
RMM:  16    -0.235633127278E+02   -0.49824E-02   -0.82766E-05    55   0.569E-02    0.140E-02
RMM:  17    -0.235671875780E+02   -0.38749E-02   -0.45999E-05    54   0.450E-02    0.131E-02
RMM:  18    -0.235703868765E+02   -0.31993E-02   -0.25970E-05    53   0.360E-02    0.974E-03
RMM:  19    -0.235771945646E+02   -0.68077E-02   -0.80475E-05    49   0.480E-02    0.772E-03
RMM:  20    -0.235787225738E+02   -0.15280E-02   -0.44124E-05    50   0.387E-02    0.566E-03
RMM:  21    -0.235794000149E+02   -0.67744E-03   -0.11136E-05    44   0.263E-02    0.282E-03
RMM:  22    -0.235799861467E+02   -0.58613E-03   -0.51521E-06    38   0.174E-02    0.176E-03
RMM:  23    -0.235803388588E+02   -0.35271E-03   -0.14456E-06    32   0.120E-02    0.121E-03
RMM:  24    -0.235805826088E+02   -0.24375E-03   -0.10145E-06    31   0.946E-03    0.912E-04
RMM:  25    -0.235807665445E+02   -0.18394E-03   -0.89732E-07    31   0.871E-03    0.573E-04
RMM:  26    -0.235808734791E+02   -0.10693E-03   -0.60594E-07    28   0.816E-03    0.463E-04
RMM:  27    -0.235809288412E+02   -0.55362E-04   -0.37453E-07    27   0.664E-03    0.316E-04
RMM:  28    -0.235809620523E+02   -0.33211E-04   -0.18383E-07    24   0.547E-03    0.177E-04
RMM:  29    -0.235809864497E+02   -0.24397E-04   -0.88395E-08    21   0.369E-03    0.160E-04
RMM:  30    -0.235809956144E+02   -0.91646E-05   -0.50489E-08    23   0.318E-03    0.836E-05
RMM:  31    -0.235810011454E+02   -0.55310E-05   -0.24212E-08    19   0.233E-03    0.701E-05
RMM:  32    -0.235810033474E+02   -0.22020E-05   -0.13208E-08    19   0.214E-03    0.454E-05
RMM:  33    -0.235810073170E+02   -0.39697E-05   -0.39923E-09    14   0.179E-03    0.268E-05
RMM:  34    -0.235810088177E+02   -0.15006E-05   -0.22710E-09    14   0.173E-03    0.219E-05
RMM:  35    -0.235810093584E+02   -0.54075E-06    0.00000E+00    11   0.165E-03
   9 F= -.23609705E+02 E0= -.23609705E+02  d E =-.254997E+01  mag=    -1.0000
       N       E                     dE             d eps       ncg     rms          rms(c)
DAV:   1    -0.234414605715E+02    0.13955E+00   -0.34864E+02    48   0.244E+02    0.112E+01
RMM:   2    -0.242370402082E+02   -0.79558E+00   -0.99710E+00    48   0.322E+01    0.352E+00
RMM:   3    -0.242351268639E+02    0.19133E-02   -0.50741E-01    50   0.904E+00    0.194E+00
RMM:   4    -0.242747284161E+02   -0.39602E-01   -0.11235E-01    50   0.325E+00    0.923E-01
RMM:   5    -0.243205638599E+02   -0.45835E-01   -0.46612E-02    50   0.234E+00    0.342E-01
RMM:   6    -0.243400266348E+02   -0.19463E-01   -0.67380E-03    55   0.735E-01    0.223E-01
RMM:   7    -0.243554246433E+02   -0.15398E-01   -0.23271E-03    51   0.428E-01    0.873E-02
RMM:   8    -0.243687267072E+02   -0.13302E-01   -0.10496E-03    53   0.279E-01    0.417E-02
RMM:   9    -0.243735124463E+02   -0.47857E-02   -0.12438E-04    53   0.971E-02    0.317E-02
RMM:  10    -0.243787881677E+02   -0.52757E-02   -0.79492E-05    48   0.671E-02    0.215E-02
RMM:  11    -0.243866960816E+02   -0.79079E-02   -0.14992E-04    49   0.764E-02    0.126E-02
RMM:  12    -0.243899673469E+02   -0.32713E-02   -0.61571E-05    50   0.461E-02    0.103E-02
RMM:  13    -0.243921384866E+02   -0.21711E-02   -0.25012E-05    48   0.345E-02    0.818E-03
RMM:  14    -0.243968662251E+02   -0.47277E-02   -0.10781E-04    48   0.498E-02    0.526E-03
RMM:  15    -0.243981166779E+02   -0.12505E-02   -0.34296E-05    48   0.315E-02    0.358E-03
RMM:  16    -0.243988829633E+02   -0.76629E-03   -0.12251E-05    45   0.203E-02    0.246E-03
RMM:  17    -0.243994278115E+02   -0.54485E-03   -0.91150E-06    43   0.195E-02    0.159E-03
RMM:  18    -0.243996450132E+02   -0.21720E-03   -0.23944E-06    34   0.134E-02    0.983E-04
RMM:  19    -0.243998416515E+02   -0.19664E-03   -0.22123E-06    34   0.112E-02    0.679E-04
RMM:  20    -0.243999611645E+02   -0.11951E-03   -0.17068E-06    34   0.930E-03    0.488E-04
RMM:  21    -0.244000081576E+02   -0.46993E-04   -0.64268E-07    29   0.792E-03    0.413E-04
RMM:  22    -0.244000387496E+02   -0.30592E-04   -0.32664E-07    28   0.716E-03    0.259E-04
RMM:  23    -0.244000717779E+02   -0.33028E-04   -0.24424E-07    27   0.459E-03    0.167E-04
RMM:  24    -0.244000871317E+02   -0.15354E-04   -0.12834E-07    23   0.467E-03    0.171E-04
RMM:  25    -0.244000943669E+02   -0.72352E-05   -0.64743E-08    19   0.281E-03    0.767E-05
RMM:  26    -0.244001027835E+02   -0.84167E-05   -0.41949E-08    19   0.286E-03    0.764E-05
RMM:  27    -0.244001052783E+02   -0.24948E-05   -0.21461E-08    15   0.220E-03    0.394E-05
RMM:  28    -0.244001063726E+02   -0.10942E-05   -0.11752E-08    14   0.217E-03    0.409E-05
RMM:  29    -0.244001074526E+02   -0.10800E-05   -0.69315E-09    14   0.183E-03    0.194E-05
RMM:  30    -0.244001083370E+02   -0.88444E-06   -0.42775E-09    14   0.186E-03
  10 F= -.24423833E+02 E0= -.24423833E+02  d E =-.336410E+01  mag=    -1.0000
       N       E                     dE             d eps       ncg     rms          rms(c)
DAV:   1    -0.244063872003E+02   -0.62797E-02   -0.25155E-02    84   0.211E+00    0.867E-02
RMM:   2    -0.244063155830E+02    0.71617E-04   -0.26561E-04    48   0.160E-01    0.280E-02
RMM:   3    -0.244063100260E+02    0.55569E-05   -0.29903E-05    48   0.772E-02    0.149E-02
RMM:   4    -0.244063284167E+02   -0.18391E-04   -0.92316E-06    46   0.276E-02    0.607E-03
RMM:   5    -0.244063423699E+02   -0.13953E-04   -0.11371E-06    31   0.158E-02    0.298E-03
RMM:   6    -0.244063521693E+02   -0.97994E-05   -0.61323E-07    30   0.113E-02    0.127E-03
RMM:   7    -0.244063584394E+02   -0.62701E-05   -0.36626E-07    30   0.744E-03    0.789E-04
RMM:   8    -0.244063637120E+02   -0.52726E-05   -0.20049E-07    30   0.663E-03    0.523E-04
RMM:   9    -0.244063697250E+02   -0.60130E-05   -0.13778E-07    27   0.473E-03    0.391E-04
RMM:  10    -0.244063784332E+02   -0.87082E-05   -0.15669E-07    29   0.419E-03    0.248E-04
RMM:  11    -0.244063809009E+02   -0.24676E-05   -0.77781E-08    23   0.410E-03    0.177E-04
RMM:  12    -0.244063848171E+02   -0.39162E-05   -0.61877E-08    20   0.263E-03    0.150E-04
RMM:  13    -0.244063892787E+02   -0.44617E-05   -0.64373E-08    21   0.303E-03    0.124E-04
RMM:  14    -0.244063920052E+02   -0.27265E-05   -0.58357E-08    20   0.260E-03    0.115E-04
RMM:  15    -0.244063937446E+02   -0.17393E-05   -0.41983E-08    20   0.276E-03    0.861E-05
RMM:  16    -0.244063948714E+02   -0.11268E-05   -0.29014E-08    16   0.216E-03    0.589E-05
RMM:  17    -0.244063962617E+02   -0.13903E-05   -0.33741E-08    16   0.220E-03    0.645E-05
RMM:  18    -0.244063973848E+02   -0.11231E-05   -0.25423E-08    16   0.211E-03    0.431E-05
RMM:  19    -0.244063976243E+02   -0.23952E-06   -0.15348E-08    14   0.219E-03
  11 F= -.24430074E+02 E0= -.24430074E+02  d E =-.624113E-02  mag=    -1.0000
       N       E                     dE             d eps       ncg     rms          rms(c)
DAV:   1    -0.244242114922E+02   -0.17814E-01   -0.22417E-01    48   0.633E+00    0.253E-01
RMM:   2    -0.244241714579E+02    0.40034E-04   -0.48407E-03    48   0.748E-01    0.814E-02
RMM:   3    -0.244241456877E+02    0.25770E-04   -0.32783E-04    49   0.288E-01    0.478E-02
RMM:   4    -0.244242236676E+02   -0.77980E-04   -0.80113E-05    51   0.864E-02    0.249E-02
RMM:   5    -0.244242997774E+02   -0.76110E-04   -0.15891E-05    49   0.514E-02    0.992E-03
RMM:   6    -0.244243521349E+02   -0.52357E-04   -0.43216E-06    40   0.185E-02    0.544E-03
RMM:   7    -0.244243890402E+02   -0.36905E-04   -0.15943E-06    32   0.143E-02    0.225E-03
RMM:   8    -0.244244217031E+02   -0.32663E-04   -0.85714E-07    31   0.110E-02    0.142E-03
RMM:   9    -0.244244616469E+02   -0.39944E-04   -0.83550E-07    31   0.101E-02    0.921E-04
RMM:  10    -0.244244828441E+02   -0.21197E-04   -0.55269E-07    30   0.943E-03    0.549E-04
RMM:  11    -0.244244963151E+02   -0.13471E-04   -0.36389E-07    29   0.664E-03    0.493E-04
RMM:  12    -0.244245115124E+02   -0.15197E-04   -0.30378E-07    28   0.597E-03    0.374E-04
RMM:  13    -0.244245419632E+02   -0.30451E-04   -0.74686E-07    32   0.610E-03    0.332E-04
RMM:  14    -0.244245498568E+02   -0.78936E-05   -0.29386E-07    25   0.590E-03    0.286E-04
RMM:  15    -0.244245544915E+02   -0.46348E-05   -0.19099E-07    22   0.363E-03    0.235E-04
RMM:  16    -0.244245614461E+02   -0.69546E-05   -0.15788E-07    23   0.451E-03    0.196E-04
RMM:  17    -0.244245686722E+02   -0.72261E-05   -0.20071E-07    23   0.360E-03    0.147E-04
RMM:  18    -0.244245713632E+02   -0.26909E-05   -0.13977E-07    23   0.434E-03    0.122E-04
RMM:  19    -0.244245724762E+02   -0.11131E-05   -0.93181E-08    20   0.282E-03    0.897E-05
RMM:  20    -0.244245730733E+02   -0.59707E-06   -0.56812E-08    17   0.295E-03
  12 F= -.24448106E+02 E0= -.24448106E+02  d E =-.242725E-01  mag=    -1.0000
       N       E                     dE             d eps       ncg     rms          rms(c)
DAV:   1    -0.244562091853E+02   -0.31637E-01   -0.90129E-01    48   0.127E+01    0.502E-01
RMM:   2    -0.244565077970E+02   -0.29861E-03   -0.19262E-02    48   0.149E+00    0.161E-01
RMM:   3    -0.244564037092E+02    0.10409E-03   -0.12834E-03    49   0.573E-01    0.944E-02
RMM:   4    -0.244566510951E+02   -0.24739E-03   -0.32541E-04    51   0.173E-01    0.489E-02
RMM:   5    -0.244568593385E+02   -0.20824E-03   -0.62084E-05    49   0.103E-01    0.202E-02
RMM:   6    -0.244570045893E+02   -0.14525E-03   -0.18455E-05    52   0.381E-02    0.115E-02
RMM:   7    -0.244571168450E+02   -0.11226E-03   -0.64919E-06    42   0.239E-02    0.475E-03
RMM:   8    -0.244572159272E+02   -0.99082E-04   -0.25526E-06    34   0.136E-02    0.259E-03
RMM:   9    -0.244573297815E+02   -0.11385E-03   -0.31070E-06    35   0.136E-02    0.132E-03
RMM:  10    -0.244573805090E+02   -0.50728E-04   -0.90461E-07    31   0.107E-02    0.997E-04
RMM:  11    -0.244574190304E+02   -0.38521E-04   -0.65749E-07    31   0.835E-03    0.940E-04
RMM:  12    -0.244574684355E+02   -0.49405E-04   -0.73669E-07    31   0.859E-03    0.713E-04
RMM:  13    -0.244575450300E+02   -0.76594E-04   -0.23043E-06    34   0.971E-03    0.623E-04
RMM:  14    -0.244575698603E+02   -0.24830E-04   -0.64013E-07    30   0.913E-03    0.444E-04
RMM:  15    -0.244575844272E+02   -0.14567E-04   -0.49270E-07    27   0.620E-03    0.374E-04
RMM:  16    -0.244576024750E+02   -0.18048E-04   -0.50096E-07    28   0.671E-03    0.300E-04
RMM:  17    -0.244576148361E+02   -0.12361E-04   -0.46668E-07    25   0.615E-03    0.231E-04
RMM:  18    -0.244576181146E+02   -0.32785E-05   -0.28288E-07    23   0.640E-03    0.170E-04
RMM:  19    -0.244576205117E+02   -0.23971E-05   -0.17843E-07    21   0.408E-03    0.131E-04
RMM:  20    -0.244576240856E+02   -0.35739E-05   -0.13791E-07    20   0.401E-03    0.119E-04
RMM:  21    -0.244576270219E+02   -0.29363E-05   -0.12635E-07    20   0.335E-03    0.106E-04
RMM:  22    -0.244576273450E+02   -0.32314E-06   -0.71749E-08    18   0.344E-03
  13 F= -.24480874E+02 E0= -.24480874E+02  d E =-.570408E-01  mag=    -1.0000
       N       E                     dE             d eps       ncg     rms          rms(c)
DAV:   1    -0.245035020786E+02   -0.45875E-01   -0.36429E+00    48   0.256E+01    0.990E-01
RMM:   2    -0.245059833281E+02   -0.24812E-02   -0.77904E-02    48   0.296E+00    0.316E-01
RMM:   3    -0.245055712184E+02    0.41211E-03   -0.50257E-03    49   0.113E+00    0.183E-01
RMM:   4    -0.245061776877E+02   -0.60647E-03   -0.13501E-03    51   0.351E-01    0.941E-02
RMM:   5    -0.245067850856E+02   -0.60740E-03   -0.26072E-04    49   0.212E-01    0.406E-02
RMM:   6    -0.245072245153E+02   -0.43943E-03   -0.73060E-05    51   0.759E-02    0.232E-02
RMM:   7    -0.245075951305E+02   -0.37062E-03   -0.29303E-05    51   0.503E-02    0.983E-03
RMM:   8    -0.245078891294E+02   -0.29400E-03   -0.93172E-06    44   0.216E-02    0.530E-03
RMM:   9    -0.245082214148E+02   -0.33229E-03   -0.78660E-06    40   0.189E-02    0.238E-03
RMM:  10    -0.245083695904E+02   -0.14818E-03   -0.27299E-06    35   0.130E-02    0.195E-03
RMM:  11    -0.245085181665E+02   -0.14858E-03   -0.24423E-06    35   0.116E-02    0.161E-03
RMM:  12    -0.245087500753E+02   -0.23191E-03   -0.68099E-06    41   0.146E-02    0.114E-03
RMM:  13    -0.245088608639E+02   -0.11079E-03   -0.34949E-06    37   0.130E-02    0.103E-03
RMM:  14    -0.245088985125E+02   -0.37649E-04   -0.93394E-07    31   0.909E-03    0.761E-04
RMM:  15    -0.245089355155E+02   -0.37003E-04   -0.93395E-07    31   0.832E-03    0.599E-04
RMM:  16    -0.245089804179E+02   -0.44902E-04   -0.16199E-06    32   0.905E-03    0.332E-04
RMM:  17    -0.245089954668E+02   -0.15049E-04   -0.71106E-07    28   0.758E-03    0.273E-04
RMM:  18    -0.245090002861E+02   -0.48193E-05   -0.32796E-07    25   0.626E-03    0.224E-04
RMM:  19    -0.245090092666E+02   -0.89805E-05   -0.26520E-07    24   0.520E-03    0.184E-04
RMM:  20    -0.245090201199E+02   -0.10853E-04   -0.30248E-07    24   0.479E-03    0.153E-04
RMM:  21    -0.245090229324E+02   -0.28125E-05   -0.19123E-07    22   0.480E-03    0.108E-04
RMM:  22    -0.245090246607E+02   -0.17283E-05   -0.11978E-07    18   0.337E-03    0.104E-04
RMM:  23    -0.245090259558E+02   -0.12952E-05   -0.76589E-08    17   0.318E-03    0.692E-05
RMM:  24    -0.245090270204E+02   -0.10646E-05   -0.51808E-08    15   0.259E-03    0.645E-05
RMM:  25    -0.245090276766E+02   -0.65620E-06   -0.33992E-08    13   0.256E-03
  14 F= -.24531714E+02 E0= -.24531714E+02  d E =-.107881E+00  mag=    -1.0000
       N       E                     dE             d eps       ncg     rms          rms(c)
DAV:   1    -0.245176814036E+02   -0.86544E-02   -0.14916E+01    48   0.523E+01    0.187E+00
RMM:   2    -0.245306859305E+02   -0.13005E-01   -0.32159E-01    48   0.593E+00    0.627E-01
RMM:   3    -0.245286280988E+02    0.20578E-02   -0.19692E-02    50   0.217E+00    0.353E-01
RMM:   4    -0.245294323799E+02   -0.80428E-03   -0.57436E-03    51   0.730E-01    0.175E-01
RMM:   5    -0.245313421785E+02   -0.19098E-02   -0.12290E-03    49   0.464E-01    0.788E-02
RMM:   6    -0.245329225847E+02   -0.15804E-02   -0.30494E-04    50   0.156E-01    0.465E-02
RMM:   7    -0.245343820760E+02   -0.14595E-02   -0.15424E-04    51   0.113E-01    0.198E-02
RMM:   8    -0.245353292821E+02   -0.94721E-03   -0.38724E-05    49   0.425E-02    0.119E-02
RMM:   9    -0.245363615617E+02   -0.10323E-02   -0.32792E-05    46   0.352E-02    0.538E-03
RMM:  10    -0.245369198973E+02   -0.55834E-03   -0.14912E-05    44   0.231E-02    0.410E-03
RMM:  11    -0.245374553501E+02   -0.53545E-03   -0.11620E-05    44   0.187E-02    0.322E-03
RMM:  12    -0.245381329254E+02   -0.67758E-03   -0.24914E-05    46   0.228E-02    0.261E-03
RMM:  13    -0.245384132756E+02   -0.28035E-03   -0.12120E-05    42   0.194E-02    0.194E-03
RMM:  14    -0.245385256227E+02   -0.11235E-03   -0.37387E-06    36   0.122E-02    0.143E-03
RMM:  15    -0.245386509980E+02   -0.12538E-03   -0.38460E-06    37   0.118E-02    0.894E-04
RMM:  16    -0.245387263247E+02   -0.75327E-04   -0.29739E-06    34   0.119E-02    0.619E-04
RMM:  17    -0.245387431924E+02   -0.16868E-04   -0.86213E-07    30   0.992E-03    0.486E-04
RMM:  18    -0.245387594222E+02   -0.16230E-04   -0.53565E-07    30   0.795E-03    0.380E-04
RMM:  19    -0.245387930314E+02   -0.33609E-04   -0.69705E-07    29   0.720E-03    0.301E-04
RMM:  20    -0.245388127876E+02   -0.19756E-04   -0.60660E-07    27   0.720E-03    0.193E-04
RMM:  21    -0.245388178208E+02   -0.50333E-05   -0.36787E-07    25   0.608E-03    0.188E-04
RMM:  22    -0.245388229451E+02   -0.51242E-05   -0.24310E-07    20   0.455E-03    0.110E-04
RMM:  23    -0.245388277282E+02   -0.47832E-05   -0.19055E-07    20   0.408E-03    0.105E-04
RMM:  24    -0.245388290389E+02   -0.13106E-05   -0.11136E-07    17   0.364E-03    0.710E-05
RMM:  25    -0.245388303894E+02   -0.13506E-05   -0.65017E-08    15   0.282E-03    0.613E-05
RMM:  26    -0.245388318914E+02   -0.15020E-05   -0.40760E-08    13   0.267E-03    0.493E-05
RMM:  27    -0.245388324539E+02   -0.56248E-06   -0.25809E-08    12   0.229E-03
  15 F= -.24560469E+02 E0= -.24560469E+02  d E =-.136636E+00  mag=    -1.0000
       N       E                     dE             d eps       ncg     rms          rms(c)
DAV:   1    -0.246171955023E+02   -0.78364E-01   -0.13543E-01    48   0.485E+00    0.154E-01
RMM:   2    -0.246171108073E+02    0.84695E-04   -0.30522E-03    49   0.615E-01    0.676E-02
RMM:   3    -0.246170359889E+02    0.74818E-04   -0.24119E-04    50   0.230E-01    0.389E-02
RMM:   4    -0.246170094648E+02    0.26524E-04   -0.73598E-05    51   0.881E-02    0.182E-02
RMM:   5    -0.246170602599E+02   -0.50795E-04   -0.13103E-05    52   0.449E-02    0.947E-03
RMM:   6    -0.246171102450E+02   -0.49985E-04   -0.29473E-06    35   0.155E-02    0.530E-03
RMM:   7    -0.246171614207E+02   -0.51176E-04   -0.27354E-06    35   0.150E-02    0.232E-03
RMM:   8    -0.246171968552E+02   -0.35435E-04   -0.12352E-06    32   0.116E-02    0.115E-03
RMM:   9    -0.246172263484E+02   -0.29493E-04   -0.80739E-07    32   0.877E-03    0.805E-04
RMM:  10    -0.246172547240E+02   -0.28376E-04   -0.68157E-07    32   0.712E-03    0.541E-04
RMM:  11    -0.246172800241E+02   -0.25300E-04   -0.59507E-07    32   0.653E-03    0.379E-04
RMM:  12    -0.246173022474E+02   -0.22223E-04   -0.56588E-07    32   0.583E-03    0.283E-04
RMM:  13    -0.246173177337E+02   -0.15486E-04   -0.38878E-07    27   0.549E-03    0.267E-04
RMM:  14    -0.246173310478E+02   -0.13314E-04   -0.41621E-07    26   0.505E-03    0.250E-04
RMM:  15    -0.246173394477E+02   -0.83998E-05   -0.35871E-07    25   0.565E-03    0.145E-04
RMM:  16    -0.246173429284E+02   -0.34807E-05   -0.27690E-07    23   0.517E-03    0.137E-04
RMM:  17    -0.246173443687E+02   -0.14404E-05   -0.18674E-07    20   0.428E-03    0.105E-04
RMM:  18    -0.246173452013E+02   -0.83254E-06   -0.12124E-07    19   0.361E-03
  16 F= -.24638904E+02 E0= -.24638904E+02  d E =-.784354E-01  mag=    -1.0000
       N       E                     dE             d eps       ncg     rms          rms(c)
DAV:   1    -0.248444557357E+02   -0.22711E+00   -0.12295E+00    48   0.147E+01    0.450E-01
RMM:   2    -0.248445886766E+02   -0.13294E-03   -0.27739E-02    49   0.184E+00    0.207E-01
RMM:   3    -0.248440864453E+02    0.50223E-03   -0.20862E-03    49   0.707E-01    0.118E-01
RMM:   4    -0.248439758533E+02    0.11059E-03   -0.74423E-04    50   0.273E-01    0.535E-02
RMM:   5    -0.248442888974E+02   -0.31304E-03   -0.12644E-04    52   0.151E-01    0.283E-02
RMM:   6    -0.248445682081E+02   -0.27931E-03   -0.31043E-05    50   0.464E-02    0.178E-02
RMM:   7    -0.248448656283E+02   -0.29742E-03   -0.23483E-05    48   0.408E-02    0.652E-03
RMM:   8    -0.248450416046E+02   -0.17598E-03   -0.57057E-06    38   0.196E-02    0.353E-03
RMM:   9    -0.248452172334E+02   -0.17563E-03   -0.44587E-06    37   0.153E-02    0.225E-03
RMM:  10    -0.248453490160E+02   -0.13178E-03   -0.29478E-06    35   0.111E-02    0.150E-03
RMM:  11    -0.248454580952E+02   -0.10908E-03   -0.21921E-06    34   0.101E-02    0.110E-03
RMM:  12    -0.248455920711E+02   -0.13398E-03   -0.36434E-06    37   0.113E-02    0.980E-04
RMM:  13    -0.248456791648E+02   -0.87094E-04   -0.29320E-06    35   0.114E-02    0.683E-04
RMM:  14    -0.248457273637E+02   -0.48199E-04   -0.17445E-06    33   0.973E-03    0.552E-04
RMM:  15    -0.248457534562E+02   -0.26093E-04   -0.11789E-06    31   0.950E-03    0.392E-04
RMM:  16    -0.248457707383E+02   -0.17282E-04   -0.98072E-07    30   0.820E-03    0.261E-04
RMM:  17    -0.248457764122E+02   -0.56740E-05   -0.46844E-07    25   0.747E-03    0.212E-04
RMM:  18    -0.248457800628E+02   -0.36506E-05   -0.28117E-07    24   0.544E-03    0.149E-04
RMM:  19    -0.248457856091E+02   -0.55463E-05   -0.22150E-07    23   0.476E-03    0.129E-04
RMM:  20    -0.248457931663E+02   -0.75573E-05   -0.24960E-07    22   0.416E-03    0.104E-04
RMM:  21    -0.248457943315E+02   -0.11652E-05   -0.14402E-07    20   0.430E-03    0.663E-05
RMM:  22    -0.248457955274E+02   -0.11959E-05   -0.96903E-08    16   0.287E-03    0.687E-05
RMM:  23    -0.248457967845E+02   -0.12571E-05   -0.71578E-08    17   0.306E-03    0.481E-05
RMM:  24    -0.248457976056E+02   -0.82108E-06   -0.50407E-08    16   0.250E-03
  17 F= -.24867129E+02 E0= -.24867129E+02  d E =-.306660E+00  mag=    -1.0000
       N       E                     dE             d eps       ncg     rms          rms(c)
DAV:   1    -0.252598326968E+02   -0.41404E+00   -0.50179E+00    48   0.298E+01    0.854E-01
RMM:   2    -0.252614611743E+02   -0.16285E-02   -0.11554E-01    48   0.373E+00    0.453E-01
RMM:   3    -0.252597349974E+02    0.17262E-02   -0.88036E-03    50   0.149E+00    0.257E-01
RMM:   4    -0.252590574566E+02    0.67754E-03   -0.35427E-03    51   0.567E-01    0.111E-01
RMM:   5    -0.252601018472E+02   -0.10444E-02   -0.54631E-04    50   0.328E-01    0.549E-02
RMM:   6    -0.252609376067E+02   -0.83576E-03   -0.13627E-04    49   0.101E-01    0.347E-02
RMM:   7    -0.252619575738E+02   -0.10200E-02   -0.10071E-04    50   0.902E-02    0.138E-02
RMM:   8    -0.252625161309E+02   -0.55856E-03   -0.24700E-05    46   0.345E-02    0.795E-03
RMM:   9    -0.252631307813E+02   -0.61465E-03   -0.21276E-05    45   0.271E-02    0.452E-03
RMM:  10    -0.252635704916E+02   -0.43971E-03   -0.12345E-05    42   0.192E-02    0.292E-03
RMM:  11    -0.252638835009E+02   -0.31301E-03   -0.81692E-06    39   0.157E-02    0.230E-03
RMM:  12    -0.252643021105E+02   -0.41861E-03   -0.16355E-05    44   0.182E-02    0.175E-03
RMM:  13    -0.252645215281E+02   -0.21942E-03   -0.11476E-05    41   0.176E-02    0.112E-03
RMM:  14    -0.252646136700E+02   -0.92142E-04   -0.44871E-06    36   0.126E-02    0.841E-04
RMM:  15    -0.252646664145E+02   -0.52744E-04   -0.19508E-06    34   0.104E-02    0.565E-04
RMM:  16    -0.252646949724E+02   -0.28558E-04   -0.13029E-06    33   0.887E-03    0.381E-04
RMM:  17    -0.252647093492E+02   -0.14377E-04   -0.50863E-07    28   0.711E-03    0.333E-04
RMM:  18    -0.252647230003E+02   -0.13651E-04   -0.34926E-07    26   0.609E-03    0.253E-04
RMM:  19    -0.252647392037E+02   -0.16203E-04   -0.39712E-07    27   0.549E-03    0.202E-04
RMM:  20    -0.252647490584E+02   -0.98547E-05   -0.38016E-07    26   0.549E-03    0.157E-04
RMM:  21    -0.252647515904E+02   -0.25319E-05   -0.21483E-07    21   0.481E-03    0.106E-04
RMM:  22    -0.252647549417E+02   -0.33513E-05   -0.15075E-07    17   0.337E-03    0.873E-05
RMM:  23    -0.252647576148E+02   -0.26731E-05   -0.11125E-07    17   0.337E-03    0.655E-05
RMM:  24    -0.252647586434E+02   -0.10286E-05   -0.69582E-08    15   0.280E-03    0.589E-05
RMM:  25    -0.252647592086E+02   -0.56517E-06   -0.43735E-08    14   0.255E-03
  18 F= -.25285654E+02 E0= -.25285654E+02  d E =-.725185E+00  mag=    -1.0000
       N       E                     dE             d eps       ncg     rms          rms(c)
DAV:   1    -0.258716661538E+02   -0.60691E+00   -0.20987E+01    48   0.619E+01    0.171E+00
RMM:   2    -0.258797348837E+02   -0.80687E-02   -0.51412E-01    48   0.785E+00    0.117E+00
RMM:   3    -0.258711801191E+02    0.85548E-02   -0.37379E-02    51   0.305E+00    0.674E-01
RMM:   4    -0.258666138807E+02    0.45662E-02   -0.20032E-02    50   0.134E+00    0.249E-01
RMM:   5    -0.258709538541E+02   -0.43400E-02   -0.27159E-03    50   0.780E-01    0.105E-01
RMM:   6    -0.258741211125E+02   -0.31673E-02   -0.65944E-04    51   0.216E-01    0.687E-02
RMM:   7    -0.258775877595E+02   -0.34666E-02   -0.36007E-04    49   0.179E-01    0.339E-02
RMM:   8    -0.258799707559E+02   -0.23830E-02   -0.15663E-04    51   0.801E-02    0.169E-02
RMM:   9    -0.258819294877E+02   -0.19587E-02   -0.92676E-05    49   0.647E-02    0.120E-02
RMM:  10    -0.258833652794E+02   -0.14358E-02   -0.63651E-05    47   0.375E-02    0.707E-03
RMM:  11    -0.258845796014E+02   -0.12143E-02   -0.51942E-05    47   0.349E-02    0.625E-03
RMM:  12    -0.258858887840E+02   -0.13092E-02   -0.74393E-05    47   0.388E-02    0.384E-03
RMM:  13    -0.258865304750E+02   -0.64169E-03   -0.47602E-05    46   0.342E-02    0.242E-03
RMM:  14    -0.258867502438E+02   -0.21977E-03   -0.15908E-05    42   0.220E-02    0.169E-03
RMM:  15    -0.258869475322E+02   -0.19729E-03   -0.90105E-06    40   0.163E-02    0.110E-03
RMM:  16    -0.258870533807E+02   -0.10585E-03   -0.34615E-06    35   0.127E-02    0.819E-04
RMM:  17    -0.258871012483E+02   -0.47868E-04   -0.14412E-06    33   0.955E-03    0.559E-04
RMM:  18    -0.258871506271E+02   -0.49379E-04   -0.11425E-06    33   0.745E-03    0.377E-04
RMM:  19    -0.258871867893E+02   -0.36162E-04   -0.11111E-06    32   0.657E-03    0.256E-04
RMM:  20    -0.258871971325E+02   -0.10343E-04   -0.35185E-07    27   0.490E-03    0.175E-04
RMM:  21    -0.258872034032E+02   -0.62707E-05   -0.17514E-07    23   0.438E-03    0.127E-04
RMM:  22    -0.258872140856E+02   -0.10682E-04   -0.14233E-07    21   0.342E-03    0.109E-04
RMM:  23    -0.258872178923E+02   -0.38067E-05   -0.89253E-08    18   0.335E-03    0.647E-05
RMM:  24    -0.258872195928E+02   -0.17005E-05   -0.51296E-08    15   0.265E-03    0.595E-05
RMM:  25    -0.258872220373E+02   -0.24445E-05   -0.35561E-08    16   0.252E-03    0.382E-05
RMM:  26    -0.258872233540E+02   -0.13168E-05   -0.29297E-08    17   0.221E-03    0.401E-05
RMM:  27    -0.258872237042E+02   -0.35016E-06   -0.14256E-08    14   0.206E-03
  19 F= -.25907325E+02 E0= -.25907325E+02  d E =-.134686E+01  mag=    -1.0000
       N       E                     dE             d eps       ncg     rms          rms(c)
DAV:   1    -0.254430155577E+02    0.44421E+00   -0.93194E+01    48   0.134E+02    0.413E+00
RMM:   2    -0.254664516749E+02   -0.23436E-01   -0.25139E+00    48   0.186E+01    0.272E+00
RMM:   3    -0.253814913224E+02    0.84960E-01   -0.23065E-01    50   0.647E+00    0.123E+00
RMM:   4    -0.253865711728E+02   -0.50799E-02   -0.90301E-02    50   0.293E+00    0.406E-01
RMM:   5    -0.254041114203E+02   -0.17540E-01   -0.79914E-03    52   0.136E+00    0.236E-01
RMM:   6    -0.254146587321E+02   -0.10547E-01   -0.34347E-03    51   0.462E-01    0.130E-01
RMM:   7    -0.254239282923E+02   -0.92696E-02   -0.11563E-03    49   0.321E-01    0.692E-02
RMM:   8    -0.254305186492E+02   -0.65904E-02   -0.58372E-04    50   0.178E-01    0.407E-02
RMM:   9    -0.254363627194E+02   -0.58441E-02   -0.49216E-04    50   0.134E-01    0.221E-02
RMM:  10    -0.254397208736E+02   -0.33582E-02   -0.24792E-04    49   0.883E-02    0.157E-02
RMM:  11    -0.254440597585E+02   -0.43389E-02   -0.35255E-04    48   0.902E-02    0.142E-02
RMM:  12    -0.254462343283E+02   -0.21746E-02   -0.23086E-04    51   0.718E-02    0.675E-03
RMM:  13    -0.254472276162E+02   -0.99329E-03   -0.95417E-05    48   0.504E-02    0.494E-03
RMM:  14    -0.254479966608E+02   -0.76904E-03   -0.60014E-05    44   0.338E-02    0.320E-03
RMM:  15    -0.254484101145E+02   -0.41345E-03   -0.31556E-05    41   0.255E-02    0.191E-03
RMM:  16    -0.254485884561E+02   -0.17834E-03   -0.80849E-06    39   0.161E-02    0.137E-03
RMM:  17    -0.254488047797E+02   -0.21632E-03   -0.76648E-06    37   0.124E-02    0.811E-04
RMM:  18    -0.254488682930E+02   -0.63513E-04   -0.20717E-06    34   0.934E-03    0.529E-04
RMM:  19    -0.254489100460E+02   -0.41753E-04   -0.90902E-07    32   0.723E-03    0.409E-04
RMM:  20    -0.254489395690E+02   -0.29523E-04   -0.49880E-07    31   0.624E-03    0.309E-04
RMM:  21    -0.254489604605E+02   -0.20891E-04   -0.36451E-07    27   0.509E-03    0.240E-04
RMM:  22    -0.254489702946E+02   -0.98342E-05   -0.22317E-07    25   0.470E-03    0.189E-04
RMM:  23    -0.254489794707E+02   -0.91760E-05   -0.16267E-07    23   0.362E-03    0.132E-04
RMM:  24    -0.254489834924E+02   -0.40217E-05   -0.95467E-08    20   0.343E-03    0.103E-04
RMM:  25    -0.254489856032E+02   -0.21108E-05   -0.57931E-08    17   0.261E-03    0.791E-05
RMM:  26    -0.254489870031E+02   -0.13999E-05   -0.33443E-08    16   0.256E-03    0.661E-05
RMM:  27    -0.254489879899E+02   -0.98680E-06   -0.20918E-08    16   0.210E-03
  20 F= -.25467804E+02 E0= -.25467804E+02  d E =-.907335E+00  mag=    -1.0000
       N       E                     dE             d eps       ncg     rms          rms(c)
DAV:   1    -0.260986128231E+02   -0.64963E+00   -0.49269E+01    48   0.907E+01    0.370E+00
RMM:   2    -0.260676265026E+02    0.30986E-01   -0.12007E+00    49   0.131E+01    0.207E+00
RMM:   3    -0.260404939991E+02    0.27133E-01   -0.18844E-01    49   0.597E+00    0.107E+00
RMM:   4    -0.260320670628E+02    0.84269E-02   -0.39249E-02    50   0.187E+00    0.368E-01
RMM:   5    -0.260323235884E+02   -0.25653E-03   -0.63257E-03    51   0.929E-01    0.216E-01
RMM:   6    -0.260342442763E+02   -0.19207E-02   -0.25457E-03    52   0.415E-01    0.122E-01
RMM:   7    -0.260370751309E+02   -0.28309E-02   -0.83800E-04    51   0.243E-01    0.571E-02
RMM:   8    -0.260401490982E+02   -0.30740E-02   -0.37925E-04    49   0.160E-01    0.246E-02
RMM:   9    -0.260426176296E+02   -0.24685E-02   -0.18000E-04    50   0.110E-01    0.158E-02
RMM:  10    -0.260444486432E+02   -0.18310E-02   -0.78308E-05    49   0.496E-02    0.126E-02
RMM:  11    -0.260479847181E+02   -0.35361E-02   -0.23639E-04    49   0.758E-02    0.882E-03
RMM:  12    -0.260491798632E+02   -0.11951E-02   -0.90776E-05    46   0.514E-02    0.550E-03
RMM:  13    -0.260498906305E+02   -0.71077E-03   -0.34700E-05    45   0.350E-02    0.388E-03
RMM:  14    -0.260506678354E+02   -0.77720E-03   -0.32221E-05    43   0.284E-02    0.270E-03
RMM:  15    -0.260509747759E+02   -0.30694E-03   -0.14611E-05    41   0.231E-02    0.150E-03
RMM:  16    -0.260511156451E+02   -0.14087E-03   -0.46083E-06    36   0.156E-02    0.962E-04
RMM:  17    -0.260512408455E+02   -0.12520E-03   -0.32156E-06    35   0.129E-02    0.725E-04
RMM:  18    -0.260513192517E+02   -0.78406E-04   -0.18864E-06    34   0.984E-03    0.432E-04
RMM:  19    -0.260513525120E+02   -0.33260E-04   -0.62832E-07    31   0.764E-03    0.335E-04
RMM:  20    -0.260513713882E+02   -0.18876E-04   -0.32426E-07    29   0.630E-03    0.259E-04
RMM:  21    -0.260513987986E+02   -0.27410E-04   -0.28740E-07    27   0.445E-03    0.150E-04
RMM:  22    -0.260514067522E+02   -0.79536E-05   -0.16147E-07    22   0.434E-03    0.114E-04
RMM:  23    -0.260514112483E+02   -0.44962E-05   -0.87099E-08    19   0.292E-03    0.744E-05
RMM:  24    -0.260514173321E+02   -0.60838E-05   -0.58155E-08    17   0.283E-03    0.548E-05
RMM:  25    -0.260514189665E+02   -0.16344E-05   -0.37342E-08    15   0.234E-03    0.425E-05
RMM:  26    -0.260514198077E+02   -0.84123E-06   -0.22361E-08    15   0.228E-03
  21 F= -.26071126E+02 E0= -.26071126E+02  d E =-.151066E+01  mag=    -1.0000
       N       E                     dE             d eps       ncg     rms          rms(c)
DAV:   1    -0.260685473729E+02   -0.17128E-01   -0.13733E+00    48   0.156E+01    0.533E-01
RMM:   2    -0.260676737045E+02    0.87367E-03   -0.34064E-02    49   0.212E+00    0.363E-01
RMM:   3    -0.260660797242E+02    0.15940E-02   -0.41306E-03    49   0.944E-01    0.173E-01
RMM:   4    -0.260654842227E+02    0.59550E-03   -0.14046E-03    49   0.357E-01    0.522E-02
RMM:   5    -0.260659760194E+02   -0.49180E-03   -0.17275E-04    52   0.174E-01    0.329E-02
RMM:   6    -0.260663739808E+02   -0.39796E-03   -0.62041E-05    50   0.665E-02    0.195E-02
RMM:   7    -0.260667265987E+02   -0.35262E-03   -0.31044E-05    48   0.496E-02    0.940E-03
RMM:   8    -0.260670217164E+02   -0.29512E-03   -0.13741E-05    46   0.278E-02    0.507E-03
RMM:   9    -0.260673517227E+02   -0.33001E-03   -0.12879E-05    38   0.229E-02    0.335E-03
RMM:  10    -0.260675416236E+02   -0.18990E-03   -0.63079E-06    37   0.156E-02    0.199E-03
RMM:  11    -0.260678660185E+02   -0.32439E-03   -0.13637E-05    40   0.148E-02    0.206E-03
RMM:  12    -0.260680491496E+02   -0.18313E-03   -0.80372E-06    37   0.139E-02    0.134E-03
RMM:  13    -0.260681621457E+02   -0.11300E-03   -0.50872E-06    36   0.110E-02    0.812E-04
RMM:  14    -0.260682128999E+02   -0.50754E-04   -0.21300E-06    35   0.991E-03    0.651E-04
RMM:  15    -0.260682627831E+02   -0.49883E-04   -0.15967E-06    33   0.758E-03    0.394E-04
RMM:  16    -0.260682794018E+02   -0.16619E-04   -0.57008E-07    27   0.691E-03    0.324E-04
RMM:  17    -0.260682934439E+02   -0.14042E-04   -0.47653E-07    26   0.614E-03    0.269E-04
RMM:  18    -0.260683004061E+02   -0.69622E-05   -0.34474E-07    25   0.601E-03    0.181E-04
RMM:  19    -0.260683098646E+02   -0.94585E-05   -0.35825E-07    22   0.461E-03    0.166E-04
RMM:  20    -0.260683138325E+02   -0.39679E-05   -0.25750E-07    21   0.497E-03    0.883E-05
RMM:  21    -0.260683149861E+02   -0.11535E-05   -0.16195E-07    19   0.368E-03    0.103E-04
RMM:  22    -0.260683166511E+02   -0.16650E-05   -0.10153E-07    15   0.343E-03    0.575E-05
RMM:  23    -0.260683184329E+02   -0.17818E-05   -0.75111E-08    16   0.281E-03    0.504E-05
RMM:  24    -0.260683191441E+02   -0.71115E-06   -0.51209E-08    15   0.279E-03
  22 F= -.26087860E+02 E0= -.26087860E+02  d E =-.152739E+01  mag=    -1.0000
       N       E                     dE             d eps       ncg     rms          rms(c)
DAV:   1    -0.263078925703E+02   -0.23957E+00   -0.35194E-01    48   0.824E+00    0.227E-01
RMM:   2    -0.263076774569E+02    0.21511E-03   -0.68320E-03    48   0.927E-01    0.146E-01
RMM:   3    -0.263075960598E+02    0.81397E-04   -0.47539E-04    51   0.270E-01    0.687E-02
RMM:   4    -0.263075218165E+02    0.74243E-04   -0.16650E-04    52   0.125E-01    0.250E-02
RMM:   5    -0.263075895096E+02   -0.67693E-04   -0.15315E-05    49   0.570E-02    0.113E-02
RMM:   6    -0.263076225067E+02   -0.32997E-04   -0.10014E-05    47   0.261E-02    0.541E-03
RMM:   7    -0.263076467958E+02   -0.24289E-04   -0.20410E-06    33   0.155E-02    0.263E-03
RMM:   8    -0.263076685289E+02   -0.21733E-04   -0.11690E-06    32   0.129E-02    0.178E-03
RMM:   9    -0.263076923314E+02   -0.23802E-04   -0.13601E-06    32   0.815E-03    0.742E-04
RMM:  10    -0.263077071241E+02   -0.14793E-04   -0.71596E-07    31   0.801E-03    0.646E-04
RMM:  11    -0.263077236186E+02   -0.16494E-04   -0.74780E-07    30   0.660E-03    0.513E-04
RMM:  12    -0.263077491339E+02   -0.25515E-04   -0.13490E-06    31   0.734E-03    0.392E-04
RMM:  13    -0.263077578670E+02   -0.87331E-05   -0.72482E-07    27   0.789E-03    0.363E-04
RMM:  14    -0.263077624239E+02   -0.45569E-05   -0.37164E-07    25   0.544E-03    0.216E-04
RMM:  15    -0.263077658397E+02   -0.34158E-05   -0.24740E-07    25   0.509E-03    0.303E-04
RMM:  16    -0.263077696113E+02   -0.37716E-05   -0.24682E-07    27   0.465E-03    0.200E-04
RMM:  17    -0.263077713183E+02   -0.17070E-05   -0.16537E-07    25   0.442E-03    0.172E-04
RMM:  18    -0.263077722968E+02   -0.97848E-06   -0.10813E-07    20   0.311E-03
  23 F= -.26327428E+02 E0= -.26327428E+02  d E =-.239569E+00  mag=    -1.0000
       N       E                     dE             d eps       ncg     rms          rms(c)
DAV:   1    -0.269302324865E+02   -0.62246E+00   -0.31323E+00    48   0.245E+01    0.666E-01
RMM:   2    -0.269297035044E+02    0.52898E-03   -0.61407E-02    48   0.277E+00    0.429E-01
RMM:   3    -0.269288720060E+02    0.83150E-03   -0.42902E-03    51   0.861E-01    0.198E-01
RMM:   4    -0.269285237798E+02    0.34823E-03   -0.14130E-03    53   0.354E-01    0.746E-02
RMM:   5    -0.269288895995E+02   -0.36582E-03   -0.12250E-04    49   0.176E-01    0.356E-02
RMM:   6    -0.269290646962E+02   -0.17510E-03   -0.93347E-05    55   0.815E-02    0.179E-02
RMM:   7    -0.269291826301E+02   -0.11793E-03   -0.14564E-05    48   0.315E-02    0.819E-03
RMM:   8    -0.269293035437E+02   -0.12091E-03   -0.77225E-06    45   0.209E-02    0.402E-03
RMM:   9    -0.269294024123E+02   -0.98869E-04   -0.46067E-06    38   0.152E-02    0.211E-03
RMM:  10    -0.269295014887E+02   -0.99076E-04   -0.39570E-06    37   0.127E-02    0.166E-03
RMM:  11    -0.269296172077E+02   -0.11572E-03   -0.56818E-06    40   0.132E-02    0.123E-03
RMM:  12    -0.269296898420E+02   -0.72634E-04   -0.42565E-06    35   0.128E-02    0.100E-03
RMM:  13    -0.269297238245E+02   -0.33983E-04   -0.16505E-06    32   0.117E-02    0.693E-04
RMM:  14    -0.269297471334E+02   -0.23309E-04   -0.15214E-06    32   0.100E-02    0.436E-04
RMM:  15    -0.269297660890E+02   -0.18956E-04   -0.11868E-06    32   0.957E-03    0.409E-04
RMM:  16    -0.269297737518E+02   -0.76628E-05   -0.54319E-07    27   0.751E-03    0.244E-04
RMM:  17    -0.269297800729E+02   -0.63211E-05   -0.34551E-07    25   0.603E-03    0.209E-04
RMM:  18    -0.269297861135E+02   -0.60407E-05   -0.29287E-07    26   0.536E-03    0.136E-04
RMM:  19    -0.269297919532E+02   -0.58397E-05   -0.30591E-07    25   0.467E-03    0.146E-04
RMM:  20    -0.269297929344E+02   -0.98119E-06   -0.17248E-07    24   0.462E-03
  24 F= -.26949822E+02 E0= -.26949822E+02  d E =-.861963E+00  mag=    -1.0000
       N       E                     dE             d eps       ncg     rms          rms(c)
DAV:   1    -0.278027415017E+02   -0.87295E+00   -0.12231E+01    48   0.482E+01    0.126E+00
RMM:   2    -0.278058034870E+02   -0.30620E-02   -0.24940E-01    48   0.560E+00    0.822E-01
RMM:   3    -0.278031129901E+02    0.26905E-02   -0.17311E-02    51   0.185E+00    0.379E-01
RMM:   4    -0.278024237102E+02    0.68928E-03   -0.51931E-03    52   0.653E-01    0.149E-01
RMM:   5    -0.278033918109E+02   -0.96810E-03   -0.49893E-04    50   0.375E-01    0.745E-02
RMM:   6    -0.278038544057E+02   -0.46259E-03   -0.33714E-04    55   0.153E-01    0.379E-02
RMM:   7    -0.278041775873E+02   -0.32318E-03   -0.57769E-05    52   0.624E-02    0.162E-02
RMM:   8    -0.278044637512E+02   -0.28616E-03   -0.22623E-05    51   0.406E-02    0.914E-03
RMM:   9    -0.278047550751E+02   -0.29132E-03   -0.15964E-05    47   0.269E-02    0.445E-03
RMM:  10    -0.278049751072E+02   -0.22003E-03   -0.80855E-06    41   0.177E-02    0.329E-03
RMM:  11    -0.278053037987E+02   -0.32869E-03   -0.16595E-05    44   0.200E-02    0.282E-03
RMM:  12    -0.278055244978E+02   -0.22070E-03   -0.14437E-05    43   0.194E-02    0.162E-03
RMM:  13    -0.278056264631E+02   -0.10197E-03   -0.66217E-06    39   0.163E-02    0.123E-03
RMM:  14    -0.278057033655E+02   -0.76902E-04   -0.40474E-06    35   0.115E-02    0.899E-04
RMM:  15    -0.278057323024E+02   -0.28937E-04   -0.11858E-06    32   0.105E-02    0.533E-04
RMM:  16    -0.278057479680E+02   -0.15666E-04   -0.63414E-07    29   0.811E-03    0.363E-04
RMM:  17    -0.278057666165E+02   -0.18649E-04   -0.58832E-07    27   0.711E-03    0.315E-04
RMM:  18    -0.278057855902E+02   -0.18974E-04   -0.58236E-07    26   0.714E-03    0.203E-04
RMM:  19    -0.278057914049E+02   -0.58147E-05   -0.41589E-07    25   0.631E-03    0.129E-04
RMM:  20    -0.278057953016E+02   -0.38967E-05   -0.25809E-07    24   0.507E-03    0.125E-04
RMM:  21    -0.278057988027E+02   -0.35012E-05   -0.16673E-07    21   0.392E-03    0.773E-05
RMM:  22    -0.278058005693E+02   -0.17665E-05   -0.10988E-07    18   0.341E-03    0.737E-05
RMM:  23    -0.278058012623E+02   -0.69306E-06   -0.66789E-08    15   0.293E-03
  25 F= -.27826701E+02 E0= -.27826701E+02  d E =-.173884E+01  mag=    -1.0000
       N       E                     dE             d eps       ncg     rms          rms(c)
[...]
  68 F= -.33848251E+02 E0= -.33848251E+02  d E =-.216220E-02  mag=    -1.0000
       N       E                     dE             d eps       ncg     rms          rms(c)
DAV:   1    -0.338272761717E+02    0.85286E-04   -0.57617E-01    48   0.103E+01    0.196E-01
RMM:   2    -0.338280008245E+02   -0.72465E-03   -0.12297E-02    48   0.126E+00    0.104E-01
RMM:   3    -0.338282080783E+02   -0.20725E-03   -0.89164E-04    52   0.401E-01    0.673E-02
RMM:   4    -0.338282962994E+02   -0.88221E-04   -0.19199E-04    54   0.119E-01    0.350E-02
RMM:   5    -0.338284383022E+02   -0.14200E-03   -0.32196E-05    49   0.634E-02    0.120E-02
RMM:   6    -0.338284951318E+02   -0.56830E-04   -0.37992E-06    37   0.241E-02    0.478E-03
RMM:   7    -0.338285299718E+02   -0.34840E-04   -0.14047E-06    31   0.162E-02    0.231E-03
RMM:   8    -0.338285436455E+02   -0.13674E-04   -0.59530E-07    30   0.120E-02    0.107E-03
RMM:   9    -0.338285568025E+02   -0.13157E-04   -0.43386E-07    30   0.723E-03    0.738E-04
RMM:  10    -0.338285641626E+02   -0.73601E-05   -0.24141E-07    30   0.724E-03    0.466E-04
RMM:  11    -0.338285776993E+02   -0.13537E-04   -0.32324E-07    30   0.475E-03    0.400E-04
RMM:  12    -0.338285897809E+02   -0.12082E-04   -0.29606E-07    29   0.625E-03    0.331E-04
RMM:  13    -0.338285945179E+02   -0.47371E-05   -0.21385E-07    24   0.491E-03    0.209E-04
RMM:  14    -0.338286003351E+02   -0.58172E-05   -0.20586E-07    26   0.442E-03    0.258E-04
RMM:  15    -0.338286074937E+02   -0.71586E-05   -0.27506E-07    24   0.459E-03    0.207E-04
RMM:  16    -0.338286088570E+02   -0.13633E-05   -0.17128E-07    24   0.494E-03    0.129E-04
RMM:  17    -0.338286097916E+02   -0.93460E-06   -0.11141E-07    20   0.312E-03
  69 F= -.33849462E+02 E0= -.33849462E+02  d E =-.337354E-02  mag=    -1.0000
       N       E                     dE             d eps       ncg     rms          rms(c)
DAV:   1    -0.338291413025E+02   -0.53245E-03   -0.71996E-02    48   0.365E+00    0.824E-02
RMM:   2    -0.338290741988E+02    0.67104E-04   -0.18944E-03    49   0.538E-01    0.420E-02
RMM:   3    -0.338290243705E+02    0.49828E-04   -0.15264E-04    51   0.176E-01    0.269E-02
RMM:   4    -0.338290427995E+02   -0.18429E-04   -0.36900E-05    52   0.559E-02    0.152E-02
RMM:   5    -0.338291337805E+02   -0.90981E-04   -0.10539E-05    49   0.353E-02    0.516E-03
RMM:   6    -0.338291890174E+02   -0.55237E-04   -0.20863E-06    33   0.151E-02    0.259E-03
RMM:   7    -0.338292272290E+02   -0.38212E-04   -0.77493E-07    31   0.116E-02    0.125E-03
RMM:   8    -0.338292532468E+02   -0.26018E-04   -0.51132E-07    31   0.811E-03    0.645E-04
RMM:   9    -0.338292689957E+02   -0.15749E-04   -0.27944E-07    31   0.716E-03    0.381E-04
RMM:  10    -0.338292799825E+02   -0.10987E-04   -0.18622E-07    28   0.486E-03    0.303E-04
RMM:  11    -0.338293026283E+02   -0.22646E-04   -0.26285E-07    30   0.499E-03    0.225E-04
RMM:  12    -0.338293163836E+02   -0.13755E-04   -0.23220E-07    26   0.517E-03    0.153E-04
RMM:  13    -0.338293224341E+02   -0.60505E-05   -0.16919E-07    23   0.435E-03    0.154E-04
RMM:  14    -0.338293298208E+02   -0.73867E-05   -0.15678E-07    22   0.389E-03    0.942E-05
RMM:  15    -0.338293356486E+02   -0.58278E-05   -0.14539E-07    23   0.396E-03    0.114E-04
RMM:  16    -0.338293367189E+02   -0.10702E-05   -0.87715E-08    22   0.361E-03    0.467E-05
RMM:  17    -0.338293375531E+02   -0.83424E-06   -0.52263E-08    17   0.268E-03
  70 F= -.33850151E+02 E0= -.33850151E+02  d E =-.689261E-03  mag=    -1.0000
       N       E                     dE             d eps       ncg     rms          rms(c)
DAV:   1    -0.338293573787E+02   -0.20660E-04   -0.21835E-03    72   0.631E-01    0.140E-02
RMM:   2    -0.338293441299E+02    0.13249E-04   -0.30405E-05    49   0.616E-02    0.712E-03
RMM:   3    -0.338293406042E+02    0.35256E-05   -0.18865E-06    33   0.200E-02    0.407E-03
RMM:   4    -0.338293378574E+02    0.27469E-05   -0.78068E-07    31   0.123E-02    0.173E-03
RMM:   5    -0.338293435862E+02   -0.57288E-05   -0.42436E-07    31   0.928E-03    0.559E-04
RMM:   6    -0.338293483018E+02   -0.47156E-05   -0.15145E-07    30   0.610E-03    0.398E-04
RMM:   7    -0.338293517848E+02   -0.34831E-05   -0.79535E-08    26   0.380E-03    0.268E-04
RMM:   8    -0.338293547212E+02   -0.29364E-05   -0.57853E-08    26   0.310E-03    0.151E-04
RMM:   9    -0.338293559633E+02   -0.12421E-05   -0.27558E-08    19   0.259E-03    0.934E-05
RMM:  10    -0.338293566377E+02   -0.67441E-06   -0.14630E-08    16   0.205E-03
  71 F= -.33850164E+02 E0= -.33850164E+02  d E =-.701695E-03  mag=    -1.0000
       N       E                     dE             d eps       ncg     rms          rms(c)
DAV:   1    -0.338294936374E+02   -0.13767E-03   -0.50890E-03    48   0.100E+00    0.220E-02
RMM:   2    -0.338294866969E+02    0.69405E-05   -0.11660E-04    48   0.127E-01    0.123E-02
RMM:   3    -0.338294968085E+02   -0.10112E-04   -0.81667E-06    48   0.374E-02    0.727E-03
RMM:   4    -0.338294992983E+02   -0.24898E-05   -0.22588E-06    33   0.151E-02    0.356E-03
RMM:   5    -0.338295023504E+02   -0.30521E-05   -0.48112E-07    30   0.126E-02    0.131E-03
RMM:   6    -0.338295030967E+02   -0.74622E-06   -0.15510E-07    30   0.581E-03
  72 F= -.33850301E+02 E0= -.33850301E+02  d E =-.136938E-03  mag=    -1.0000
       N       E                     dE             d eps       ncg     rms          rms(c)
DAV:   1    -0.338295380140E+02   -0.35664E-04   -0.16540E-03    96   0.568E-01    0.133E-02
RMM:   2    -0.338295313468E+02    0.66671E-05   -0.19273E-05    47   0.467E-02    0.681E-03
RMM:   3    -0.338295353989E+02   -0.40521E-05   -0.14438E-06    30   0.178E-02    0.384E-03
RMM:   4    -0.338295366710E+02   -0.12720E-05   -0.97483E-07    30   0.123E-02    0.176E-03
RMM:   5    -0.338295378992E+02   -0.12282E-05   -0.34708E-07    30   0.104E-02    0.637E-04
RMM:   6    -0.338295382471E+02   -0.34797E-06   -0.94476E-08    29   0.496E-03
  73 F= -.33850330E+02 E0= -.33850330E+02  d E =-.166729E-03  mag=    -1.0000
       N       E                     dE             d eps       ncg     rms          rms(c)
DAV:   1    -0.338295427237E+02   -0.48245E-05   -0.23211E-04    72   0.213E-01    0.484E-03
RMM:   2    -0.338295413920E+02    0.13316E-05   -0.30372E-06    33   0.191E-02    0.255E-03
RMM:   3    -0.338295424696E+02   -0.10776E-05   -0.32473E-07    29   0.919E-03    0.149E-03
RMM:   4    -0.338295429430E+02   -0.47343E-06   -0.19263E-07    29   0.576E-03    0.612E-04
RMM:   5    -0.338295431879E+02   -0.24486E-06   -0.57863E-08    24   0.446E-03
  74 F= -.33850333E+02 E0= -.33850333E+02  d E =-.169663E-03  mag=    -1.0000
       N       E                     dE             d eps       ncg     rms          rms(c)
DAV:   1    -0.338295747022E+02   -0.31759E-04   -0.47190E-03    48   0.979E-01    0.173E-02
RMM:   2    -0.338295664533E+02    0.82489E-05   -0.10474E-04    48   0.130E-01    0.955E-03
RMM:   3    -0.338295773370E+02   -0.10884E-04   -0.61547E-06    43   0.373E-02    0.622E-03
RMM:   4    -0.338295785289E+02   -0.11919E-05   -0.14293E-06    30   0.141E-02    0.348E-03
RMM:   5    -0.338295822014E+02   -0.36724E-05   -0.49070E-07    30   0.114E-02    0.147E-03
RMM:   6    -0.338295833490E+02   -0.11476E-05   -0.19822E-07    30   0.740E-03    0.558E-04
RMM:   7    -0.338295838035E+02   -0.45449E-06   -0.82905E-08    30   0.491E-03
  75 F= -.33850373E+02 E0= -.33850373E+02  d E =-.395271E-04  mag=    -1.0000
       N       E                     dE             d eps       ncg     rms          rms(c)
DAV:   1    -0.338295845203E+02   -0.11713E-05   -0.27707E-05    96   0.741E-02    0.135E-03
RMM:   2    -0.338295843977E+02    0.12262E-06   -0.20567E-07    29   0.501E-03    0.728E-04
RMM:   3    -0.338295847587E+02   -0.36101E-06   -0.22596E-08    25   0.261E-03    0.434E-04
RMM:   4    -0.338295851178E+02   -0.35907E-06   -0.76823E-09    16   0.170E-03    0.143E-04
RMM:   5    -0.338295853494E+02   -0.23166E-06   -0.60175E-09    16   0.172E-03
  76 F= -.33850374E+02 E0= -.33850374E+02  d E =-.409924E-04  mag=    -1.0000
       N       E                     dE             d eps       ncg     rms          rms(c)
DAV:   1    -0.338295948741E+02   -0.97563E-05   -0.13398E-03    48   0.498E-01    0.880E-03
RMM:   2    -0.338295899520E+02    0.49221E-05   -0.28327E-05    48   0.597E-02    0.490E-03
RMM:   3    -0.338295935145E+02   -0.35625E-05   -0.16269E-06    32   0.158E-02    0.308E-03
RMM:   4    -0.338295941092E+02   -0.59465E-06   -0.60934E-07    30   0.981E-03    0.141E-03
RMM:   5    -0.338295959357E+02   -0.18265E-05   -0.23723E-07    30   0.685E-03    0.467E-04
RMM:   6    -0.338295968006E+02   -0.86492E-06   -0.89936E-08    29   0.499E-03
  77 F= -.33850387E+02 E0= -.33850387E+02  d E =-.123423E-04  mag=    -1.0000
       N       E                     dE             d eps       ncg     rms          rms(c)
DAV:   1    -0.338295990497E+02   -0.31140E-05   -0.11159E-03    72   0.453E-01    0.828E-03
RMM:   2    -0.338295935060E+02    0.55437E-05   -0.17363E-05    45   0.447E-02    0.466E-03
RMM:   3    -0.338295966613E+02   -0.31553E-05   -0.96217E-07    31   0.128E-02    0.281E-03
RMM:   4    -0.338295976204E+02   -0.95913E-06   -0.43196E-07    30   0.806E-03    0.118E-03
RMM:   5    -0.338295989970E+02   -0.13766E-05   -0.16912E-07    30   0.592E-03    0.368E-04
RMM:   6    -0.338295997723E+02   -0.77523E-06   -0.63789E-08    29   0.401E-03
  78 F= -.33850391E+02 E0= -.33850391E+02  d E =-.161295E-04  mag=    -1.0000
       N       E                     dE             d eps       ncg     rms          rms(c)
DAV:   1    -0.338296032210E+02   -0.42240E-05   -0.12373E-03    48   0.484E-01    0.828E-03
RMM:   2    -0.338296000427E+02    0.31783E-05   -0.24764E-05    48   0.546E-02    0.484E-03
RMM:   3    -0.338296033492E+02   -0.33065E-05   -0.12613E-06    32   0.167E-02    0.306E-03
RMM:   4    -0.338296050297E+02   -0.16805E-05   -0.43512E-07    29   0.861E-03    0.131E-03
RMM:   5    -0.338296066219E+02   -0.15922E-05   -0.15697E-07    29   0.622E-03    0.387E-04
RMM:   6    -0.338296068545E+02   -0.23260E-06   -0.58759E-08    27   0.407E-03
  79 F= -.33850402E+02 E0= -.33850402E+02  d E =-.119490E-04  mag=    -1.0000
       N       E                     dE             d eps       ncg     rms          rms(c)
DAV:   1    -0.338296015193E+02    0.51025E-05   -0.21200E-03    48   0.633E-01    0.109E-02
RMM:   2    -0.338295970237E+02    0.44956E-05   -0.42214E-05    48   0.715E-02    0.634E-03
RMM:   3    -0.338296013426E+02   -0.43188E-05   -0.21356E-06    32   0.216E-02    0.401E-03
RMM:   4    -0.338296032129E+02   -0.18703E-05   -0.73898E-07    30   0.113E-02    0.172E-03
RMM:   5    -0.338296053604E+02   -0.21475E-05   -0.26947E-07    30   0.814E-03    0.508E-04
RMM:   6    -0.338296056415E+02   -0.28114E-06   -0.10439E-07    28   0.542E-03
  80 F= -.33850408E+02 E0= -.33850408E+02  d E =-.171081E-04  mag=    -1.0000
       N       E                     dE             d eps       ncg     rms          rms(c)
DAV:   1    -0.338296085580E+02   -0.31977E-05   -0.16942E-03    48   0.567E-01    0.997E-03
RMM:   2    -0.338296026763E+02    0.58817E-05   -0.33170E-05    48   0.618E-02    0.568E-03
RMM:   3    -0.338296065424E+02   -0.38661E-05   -0.17209E-06    32   0.178E-02    0.367E-03
RMM:   4    -0.338296069930E+02   -0.45058E-06   -0.61575E-07    30   0.101E-02    0.176E-03
RMM:   5    -0.338296086623E+02   -0.16693E-05   -0.27895E-07    30   0.659E-03    0.500E-04
RMM:   6    -0.338296095579E+02   -0.89556E-06   -0.92366E-08    29   0.428E-03
  81 F= -.33850414E+02 E0= -.33850414E+02  d E =-.660971E-05  mag=    -1.0000
       N       E                     dE             d eps       ncg     rms          rms(c)
DAV:   1    -0.338296092085E+02   -0.54622E-06   -0.14526E-03    96   0.522E-01    0.948E-03
RMM:   2    -0.338296021613E+02    0.70472E-05   -0.14330E-05    47   0.371E-02    0.525E-03
RMM:   3    -0.338296053826E+02   -0.32213E-05   -0.54875E-07    30   0.123E-02    0.318E-03
RMM:   4    -0.338296058885E+02   -0.50584E-06   -0.31350E-07    30   0.717E-03    0.131E-03
RMM:   5    -0.338296077116E+02   -0.18231E-05   -0.12980E-07    30   0.601E-03    0.382E-04
RMM:   6    -0.338296086001E+02   -0.88850E-06   -0.40935E-08    24   0.288E-03
  82 F= -.33850416E+02 E0= -.33850416E+02  d E =-.813198E-05  mag=    -1.0000
       N       E                     dE             d eps       ncg     rms          rms(c)
DAV:   1    -0.338296153475E+02   -0.76359E-05   -0.70861E-04    72   0.362E-01    0.664E-03
RMM:   2    -0.338296117002E+02    0.36473E-05   -0.81681E-06    41   0.291E-02    0.385E-03
RMM:   3    -0.338296150061E+02   -0.33059E-05   -0.44769E-07    30   0.115E-02    0.230E-03
RMM:   4    -0.338296161195E+02   -0.11134E-05   -0.23917E-07    30   0.671E-03    0.814E-04
RMM:   5    -0.338296178442E+02   -0.17247E-05   -0.77454E-08    30   0.509E-03    0.330E-04
RMM:   6    -0.338296182819E+02   -0.43771E-06   -0.21846E-08    22   0.240E-03
  83 F= -.33850426E+02 E0= -.33850426E+02  d E =-.103534E-04  mag=    -1.0000
       N       E                     dE             d eps       ncg     rms          rms(c)
DAV:   1    -0.338296133668E+02    0.44774E-05   -0.63142E-03    48   0.109E+00    0.199E-02
RMM:   2    -0.338296016133E+02    0.11754E-04   -0.12807E-04    48   0.125E-01    0.115E-02
RMM:   3    -0.338296118701E+02   -0.10257E-04   -0.93165E-06    44   0.384E-02    0.729E-03
RMM:   4    -0.338296125096E+02   -0.63948E-06   -0.15098E-06    31   0.161E-02    0.292E-03
RMM:   5    -0.338296193358E+02   -0.68262E-05   -0.58101E-07    31   0.133E-02    0.965E-04
RMM:   6    -0.338296218602E+02   -0.25245E-05   -0.21418E-07    30   0.765E-03    0.631E-04
RMM:   7    -0.338296233232E+02   -0.14630E-05   -0.96751E-08    30   0.517E-03    0.384E-04
RMM:   8    -0.338296244279E+02   -0.11047E-05   -0.53809E-08    30   0.333E-03    0.168E-04
RMM:   9    -0.338296248894E+02   -0.46147E-06   -0.24826E-08    21   0.261E-03
  84 F= -.33850435E+02 E0= -.33850435E+02  d E =-.189779E-04  mag=    -1.0000
       N       E                     dE             d eps       ncg     rms          rms(c)
DAV:   1    -0.338296312794E+02   -0.68515E-05   -0.10714E-03    84   0.448E-01    0.782E-03
RMM:   2    -0.338296243908E+02    0.68886E-05   -0.95545E-06    47   0.331E-02    0.472E-03
RMM:   3    -0.338296302505E+02   -0.58597E-05   -0.38626E-07    30   0.101E-02    0.282E-03
RMM:   4    -0.338296311014E+02   -0.85091E-06   -0.27733E-07    30   0.659E-03    0.787E-04
RMM:   5    -0.338296328790E+02   -0.17776E-05   -0.79032E-08    30   0.522E-03    0.337E-04
RMM:   6    -0.338296332593E+02   -0.38036E-06   -0.22125E-08    20   0.221E-03
  85 F= -.33850444E+02 E0= -.33850444E+02  d E =-.904975E-05  mag=    -1.0000
       N       E                     dE             d eps       ncg     rms          rms(c)
DAV:   1    -0.338296340593E+02   -0.11803E-05   -0.54977E-04    84   0.321E-01    0.560E-03
RMM:   2    -0.338296294396E+02    0.46196E-05   -0.47965E-06    39   0.236E-02    0.338E-03
RMM:   3    -0.338296327328E+02   -0.32931E-05   -0.28909E-07    30   0.924E-03    0.204E-03
RMM:   4    -0.338296331291E+02   -0.39635E-06   -0.17117E-07    30   0.538E-03    0.587E-04
RMM:   5    -0.338296339793E+02   -0.85014E-06   -0.45698E-08    26   0.402E-03
  86 F= -.33850445E+02 E0= -.33850445E+02  d E =-.102573E-04  mag=    -1.0000
       N       E                     dE             d eps       ncg     rms          rms(c)
DAV:   1    -0.338296380958E+02   -0.49666E-05   -0.40821E-04    96   0.271E-01    0.540E-03
RMM:   2    -0.338296339739E+02    0.41218E-05   -0.33477E-06    37   0.187E-02    0.342E-03
RMM:   3    -0.338296368333E+02   -0.28594E-05   -0.24543E-07    29   0.816E-03    0.187E-03
RMM:   4    -0.338296375598E+02   -0.72646E-06   -0.17694E-07    29   0.526E-03    0.511E-04
RMM:   5    -0.338296384249E+02   -0.86512E-06   -0.33840E-08    25   0.367E-03
  87 F= -.33850449E+02 E0= -.33850449E+02  d E =-.420758E-05  mag=    -1.0000
       N       E                     dE             d eps       ncg     rms          rms(c)
DAV:   1    -0.338296394497E+02   -0.18899E-05   -0.21293E-04    96   0.196E-01    0.391E-03
RMM:   2    -0.338296368848E+02    0.25649E-05   -0.17043E-06    32   0.136E-02    0.246E-03
RMM:   3    -0.338296386806E+02   -0.17958E-05   -0.15653E-07    29   0.664E-03    0.135E-03
RMM:   4    -0.338296392410E+02   -0.56040E-06   -0.91647E-08    28   0.404E-03    0.384E-04
RMM:   5    -0.338296397179E+02   -0.47696E-06   -0.18533E-08    25   0.275E-03
  88 F= -.33850450E+02 E0= -.33850450E+02  d E =-.532917E-05  mag=    -1.0000
       N       E                     dE             d eps       ncg     rms          rms(c)
DAV:   1    -0.338296442277E+02   -0.49867E-05   -0.28387E-04    96   0.227E-01    0.429E-03
RMM:   2    -0.338296407944E+02    0.34333E-05   -0.24956E-06    35   0.161E-02    0.265E-03
RMM:   3    -0.338296433590E+02   -0.25646E-05   -0.19873E-07    30   0.711E-03    0.154E-03
RMM:   4    -0.338296435482E+02   -0.18916E-06   -0.11805E-07    30   0.441E-03    0.514E-04
RMM:   5    -0.338296443361E+02   -0.78796E-06   -0.24605E-08    25   0.313E-03
  89 F= -.33850453E+02 E0= -.33850453E+02  d E =-.286217E-05  mag=    -1.0000
       N       E                     dE             d eps       ncg     rms          rms(c)
DAV:   1    -0.338296464256E+02   -0.28774E-05   -0.17027E-04    84   0.176E-01    0.332E-03
RMM:   2    -0.338296439778E+02    0.24478E-05   -0.15571E-06    32   0.131E-02    0.208E-03
RMM:   3    -0.338296456025E+02   -0.16248E-05   -0.15226E-07    30   0.633E-03    0.123E-03
RMM:   4    -0.338296455782E+02    0.24304E-07   -0.75958E-08    27   0.358E-03    0.434E-04
RMM:   5    -0.338296461621E+02   -0.58388E-06   -0.15359E-08    24   0.260E-03
  90 F= -.33850454E+02 E0= -.33850454E+02  d E =-.332656E-05  mag=    -1.0000
       N       E                     dE             d eps       ncg     rms          rms(c)
DAV:   1    -0.338296478125E+02   -0.22343E-05   -0.33749E-04    96   0.246E-01    0.462E-03
RMM:   2    -0.338296442570E+02    0.35555E-05   -0.28507E-06    34   0.177E-02    0.281E-03
RMM:   3    -0.338296471399E+02   -0.28829E-05   -0.23871E-07    29   0.787E-03    0.160E-03
RMM:   4    -0.338296475350E+02   -0.39509E-06   -0.15442E-07    29   0.491E-03    0.505E-04
RMM:   5    -0.338296482519E+02   -0.71691E-06   -0.31356E-08    25   0.355E-03
  91 F= -.33850457E+02 E0= -.33850457E+02  d E =-.308480E-05  mag=    -1.0000
       N       E                     dE             d eps       ncg     rms          rms(c)
DAV:   1    -0.338296478021E+02   -0.26704E-06   -0.60322E-04    96   0.328E-01    0.611E-03
RMM:   2    -0.338296421324E+02    0.56696E-05   -0.52606E-06    40   0.237E-02    0.378E-03
RMM:   3    -0.338296462499E+02   -0.41174E-05   -0.32229E-07    30   0.914E-03    0.218E-03
RMM:   4    -0.338296463671E+02   -0.11721E-06   -0.24886E-07    30   0.607E-03    0.604E-04
RMM:   5    -0.338296476327E+02   -0.12656E-05   -0.53631E-08    26   0.462E-03    0.314E-04
RMM:   6    -0.338296478654E+02   -0.23267E-06   -0.54735E-09    15   0.167E-03
  92 F= -.33850458E+02 E0= -.33850458E+02  d E =-.402845E-05  mag=    -1.0000
       N       E                     dE             d eps       ncg     rms          rms(c)
DAV:   1    -0.338296480333E+02   -0.40057E-06   -0.48110E-04    72   0.289E-01    0.599E-03
RMM:   2    -0.338296428760E+02    0.51573E-05   -0.55607E-06    38   0.257E-02    0.364E-03
RMM:   3    -0.338296457680E+02   -0.28920E-05   -0.45958E-07    30   0.115E-02    0.212E-03
RMM:   4    -0.338296449659E+02    0.80212E-06   -0.31831E-07    30   0.687E-03    0.659E-04
RMM:   5    -0.338296466752E+02   -0.17093E-05   -0.76251E-08    30   0.535E-03    0.340E-04
RMM:   6    -0.338296472142E+02   -0.53893E-06   -0.19158E-08    20   0.204E-03
  93 F= -.33850459E+02 E0= -.33850459E+02  d E =-.104439E-05  mag=    -1.0000
