Co–organic framework                  
           1
     9.813847    0.000000    0.000000
    -4.628217    8.653970    0.000000
    -4.470393    2.678746   11.576603
   Li   C    O 
   1   2   3
Direct configuration=     1
   0.70634991  0.35553086  0.63716381
   0.43916965  0.42351349  0.62508908
   0.71763685  0.62345300  0.51298987
   0.64503377  0.69853390  0.48442137
   0.51975378  0.35087564  0.65184130
   0.36431383  0.49871104  0.59678562
Co–organic framework                  
           1
     9.311142    0.194356   -0.085470
    -4.219755    8.360363    0.217407
    -4.289174    2.764612   11.545294
   Li   C    O 
   1   2   3
Direct configuration=     2
   0.70231804  0.36256029  0.63424690
   0.44282605  0.42580236  0.62418062
   0.71705488  0.61720607  0.51600914
   0.64328127  0.69610990  0.48564815
   0.51480673  0.35650232  0.64935114
   0.37197082  0.49243699  0.59885509
Co–organic framework                  
           1
     9.380412    0.167575   -0.073693
    -4.276039    8.400820    0.187450
    -4.314145    2.752780   11.549608
   Li   C    O 
   1   2   3
Direct configuration=     3
   0.70292237  0.36153124  0.63467377
   0.44230704  0.42548586  0.62430826
   0.71711923  0.61810569  0.51557551
   0.64352636  0.69645337  0.48547400
   0.51553774  0.35567198  0.64971625
   0.37084505  0.49336980  0.59854325
Co–organic framework                  
           1
     9.341374    0.182668   -0.080330
    -4.244320    8.378021    0.204332
    -4.300072    2.759448   11.547177
   Li   C    O 
   1   2   3
Direct configuration=     4
   0.70258583  0.36210620  0.63443526
   0.44259830  0.42566416  0.62423651
   0.71708163  0.61760187  0.51581845
   0.64338852  0.69626056  0.48557174
   0.51512985  0.35613539  0.64951230
   0.37147366  0.49284975  0.59871678
Co–organic framework                  
           1
     9.360893    0.175121   -0.077012
    -4.260180    8.389421    0.195891
    -4.307109    2.756114   11.548393
   Li   C    O 
   1   2   3
Direct configuration=     5
   0.70275523  0.36181732  0.63455509
   0.44245233  0.42557499  0.62427244
   0.71710005  0.61785467  0.51569658
   0.64345752  0.69635718  0.48552275
   0.51533493  0.35590242  0.64961478
   0.37115772  0.49311136  0.59862940
Co–organic framework                  
           1
     9.370652    0.171348   -0.075352
    -4.268109    8.395120    0.191670
    -4.310627    2.754447   11.549001
   Li   C    O 
   1   2   3
Direct configuration=     6
   0.70283965  0.36167323  0.63461486
   0.44237943  0.42553041  0.62429039
   0.71710936  0.61798084  0.51563574
   0.64349200  0.69640543  0.48549829
   0.51543719  0.35578625  0.64966590
   0.37100016  0.49324177  0.59858586
Co–organic framework                  
           1
     9.375532    0.169462   -0.074523
    -4.272074    8.397970    0.189560
    -4.312386    2.753614   11.549304
   Li   C    O 
   1   2   3
Direct configuration=     7
   0.70288179  0.36160128  0.63464471
   0.44234300  0.42550812  0.62429936
   0.71711404  0.61804388  0.51560535
   0.64350923  0.69642955  0.48548606
   0.51548825  0.35572824  0.64969142
   0.37092148  0.49330687  0.59856413
Co–organic framework                  
           1
     9.377972    0.168518   -0.074108
    -4.274057    8.399395    0.188505
    -4.313265    2.753197   11.549456
   Li   C    O 
   1   2   3
Direct configuration=     8
   0.70290284  0.36156532  0.63465963
   0.44232479  0.42549698  0.62430384
   0.71711638  0.61807538  0.51559016
   0.64351785  0.69644160  0.48547995
   0.51551376  0.35569926  0.64970418
   0.37088217  0.49333940  0.59855328
Co–organic framework                  
           1
     9.379192    0.168047   -0.073901
    -4.275048    8.400108    0.187977
    -4.313705    2.752988   11.549532
   Li   C    O 
   1   2   3
Direct configuration=     9
   0.70291336  0.36154735  0.63466709
   0.44231569  0.42549141  0.62430609
   0.71711756  0.61809113  0.51558256
   0.64352216  0.69644763  0.48547690
   0.51552651  0.35568477  0.64971055
   0.37086252  0.49335566  0.59854785
Co–organic framework                  
           1
     9.379802    0.167811   -0.073797
    -4.275543    8.400464    0.187714
    -4.313925    2.752884   11.549570
   Li   C    O 
   1   2   3
Direct configuration=    10
   0.70291862  0.36153836  0.63467081
   0.44231114  0.42548862  0.62430721
   0.71711814  0.61809900  0.51557877
   0.64352431  0.69645064  0.48547537
   0.51553288  0.35567753  0.64971374
   0.37085270  0.49336378  0.59854514
Co–organic framework                  
           1
     9.212690    0.198998   -0.077420
    -4.166506    8.190053    0.345415
    -4.235596    2.886957   11.445128
   Li   C    O 
   1   2   3
Direct configuration=    11
   0.70066778  0.37078558  0.63060171
   0.44847445  0.42669937  0.62362624
   0.71893438  0.60830204  0.51997704
   0.63948078  0.69505419  0.48644805
   0.51407303  0.35613338  0.64936858
   0.37062737  0.49364338  0.59826942
Co–organic framework                  
           1
     8.711354    0.292561   -0.088289
    -3.839393    7.558821    0.818520
    -4.000608    3.289176   11.131802
   Li   C    O 
   1   2   3
Direct configuration=    12
   0.69383417  0.39965442  0.61786405
   0.46727732  0.43040251  0.62152048
   0.72443767  0.57771938  0.53373531
   0.62713286  0.69073162  0.48944914
   0.50962866  0.35758275  0.64830052
   0.36994710  0.49452726  0.59742155
Co–organic framework                  
           1
     9.059081    0.227666   -0.080750
    -4.066279    7.996645    0.490374
    -4.163596    3.010197   11.349126
   Li   C    O 
   1   2   3
Direct configuration=    13
   0.69873781  0.37685372  0.62800872
   0.45353501  0.42766758  0.62312526
   0.72051701  0.60186709  0.52280203
   0.63618516  0.69405193  0.48717011
   0.51285492  0.35637441  0.64912398
   0.37042789  0.49380320  0.59806093
Co–organic framework                  
           1
     8.885218    0.260113   -0.084520
    -3.952836    7.777733    0.654447
    -4.082102    3.149686   11.240464
   Li   C    O 
   1   2   3
Direct configuration=    14
   0.69634230  0.38725375  0.62340839
   0.46015911  0.42897572  0.62237401
   0.72244236  0.59085051  0.52776766
   0.63183111  0.69250737  0.48823904
   0.51129232  0.35690533  0.64874220
   0.37019059  0.49412525  0.59775974
Co–organic framework                  
           1
     8.798286    0.276337   -0.086404
    -3.896115    7.668277    0.736484
    -4.041355    3.219431   11.186133
   Li   C    O 
   1   2   3
Direct configuration=    15
   0.69513028  0.39269243  0.62099568
   0.46353173  0.42964414  0.62198594
   0.72341409  0.58508995  0.53036995
   0.62961193  0.69170736  0.48879051
   0.51049860  0.35718824  0.64854422
   0.37007117  0.49429582  0.59760473
Co–organic framework                  
           1
     8.826309    0.271107   -0.085797
    -3.914399    7.703561    0.710038
    -4.054490    3.196948   11.203647
   Li   C    O 
   1   2   3
Direct configuration=    16
   0.69552324  0.39089806  0.62179287
   0.46243449  0.42942624  0.62211313
   0.72309946  0.58699042  0.52951046
   0.63033430  0.69197000  0.48860985
   0.51075651  0.35709403  0.64860927
   0.37010979  0.49423919  0.59765546
Co–organic framework                  
           1
     8.822745    0.271639   -0.085778
    -3.912184    7.699110    0.713404
    -4.052750    3.199927   11.201344
   Li   C    O 
   1   2   3
Direct configuration=    17
   0.69547170  0.39116842  0.62167224
   0.46257549  0.42948395  0.62208517
   0.72314185  0.58670710  0.52963886
   0.63023126  0.69192879  0.48863734
   0.51073390  0.35708284  0.64860904
   0.37010359  0.49424684  0.59764839
Co–organic framework                  
           1
     8.812054    0.273234   -0.085721
    -3.905537    7.685760    0.723500
    -4.047530    3.208861   11.194433
   Li   C    O 
   1   2   3
Direct configuration=    18
   0.69531705  0.39198025  0.62130998
   0.46299865  0.42965721  0.62200121
   0.72326905  0.58585634  0.53002447
   0.62992200  0.69180506  0.48871987
   0.51066606  0.35704927  0.64860834
   0.37008498  0.49426981  0.59762718
Co–organic framework                  
           1
     8.790671    0.276424   -0.085607
    -3.892244    7.659058    0.743693
    -4.037091    3.226730   11.180611
   Li   C    O 
   1   2   3
Direct configuration=    19
   0.69500764  0.39360858  0.62058324
   0.46384598  0.43000451  0.62183282
   0.72352348  0.58414994  0.53079802
   0.62930272  0.69155698  0.48888528
   0.51053024  0.35698201  0.64860700
   0.37004773  0.49431591  0.59758467
Co–organic framework                  
           1
     8.747905    0.282805   -0.085380
    -3.865658    7.605655    0.784079
    -4.016213    3.262467   11.152969
   Li   C    O 
   1   2   3
Direct configuration=    20
   0.69438833  0.39688403  0.61912084
   0.46554465  0.43070225  0.62149419
   0.72403249  0.58071746  0.53235448
   0.62806107  0.69105834  0.48921758
   0.51025806  0.35684705  0.64860461
   0.36997319  0.49440881  0.59749934
Co–organic framework                  
           1
     8.662373    0.295566   -0.084925
    -3.812485    7.498850    0.864851
    -3.974455    3.333941   11.097683
   Li   C    O 
   1   2   3
Direct configuration=    21
   0.69314782  0.40351134  0.61615970
   0.46895814  0.43211050  0.62080935
   0.72505107  0.57377242  0.53550561
   0.62556533  0.69005093  0.48988810
   0.50971159  0.35657533  0.64860090
   0.36982385  0.49459741  0.59732738
Co–organic framework                  
           1
     8.721572    0.286733   -0.085239
    -3.849287    7.572773    0.808947
    -4.003357    3.284472   11.135948
   Li   C    O 
   1   2   3
Direct configuration=    22
   0.69400885  0.39881478  0.61826131
   0.46657284  0.43111752  0.62129415
   0.72434553  0.57869412  0.53326984
   0.62731022  0.69076267  0.48941556
   0.51009281  0.35676598  0.64860192
   0.36992755  0.49446287  0.59744825
Co–organic framework                  
           1
     8.716698    0.286819   -0.084812
    -3.846695    7.564722    0.815293
    -4.000795    3.290758   11.131136
   Li   C    O 
   1   2   3
Direct configuration=    23
   0.69395372  0.39943348  0.61798053
   0.46670524  0.43146600  0.62115285
   0.72440842  0.57806515  0.53355722
   0.62711486  0.69065750  0.48948014
   0.51016261  0.35652322  0.64868331
   0.36991294  0.49447258  0.59743699
Co–organic framework                  
           1
     8.702076    0.287078   -0.083529
    -3.838918    7.540569    0.834333
    -3.993109    3.309618   11.116701
   Li   C    O 
   1   2   3
Direct configuration=    24
   0.69378868  0.40129298  0.61713650
   0.46710288  0.43251330  0.62072802
   0.72459676  0.57617478  0.53442104
   0.62652839  0.69034138  0.48967421
   0.51037200  0.35579370  0.64892810
   0.36986910  0.49450178  0.59740317
Co–organic framework                  
           1
     8.672831    0.287594   -0.080964
    -3.823364    7.492263    0.872412
    -3.977737    3.347338   11.087832
   Li   C    O 
   1   2   3
Direct configuration=    25
   0.69346063  0.40503246  0.61543840
   0.46790072  0.43461907  0.61987276
   0.72497140  0.57237320  0.53615891
   0.62535295  0.68970541  0.49006434
   0.51079071  0.35432716  0.64942132
   0.36978138  0.49456064  0.59733531
Co–organic framework                  
           1
     8.614341    0.288628   -0.075833
    -3.792256    7.395651    0.948570
    -3.946993    3.422778   11.030092
   Li   C    O 
   1   2   3
Direct configuration=    26
   0.69281290  0.41259471  0.61200134
   0.46950685  0.43887603  0.61813945
   0.72571238  0.56468520  0.53967625
   0.62299205  0.68841828  0.49085265
   0.51162780  0.35136351  0.65042261
   0.36960581  0.49468020  0.59719873
Co–organic framework                  
           1
     8.630431    0.288343   -0.077244
    -3.800813    7.422228    0.927620
    -3.955450    3.402025   11.045976
   Li   C    O 
   1   2   3
Direct configuration=    27
   0.69298622  0.41046698  0.61297012
   0.46905910  0.43767910  0.61862924
   0.72551339  0.56684840  0.53868497
   0.62364712  0.68878101  0.49063120
   0.51139778  0.35219618  0.65013871
   0.36965418  0.49464626  0.59723680
Co–organic framework                  
           1
     8.642587    0.284848   -0.076286
    -3.809423    7.431239    0.921773
    -3.961044    3.398856   11.048554
   Li   C    O 
   1   2   3
Direct configuration=    28
   0.69318654  0.40994407  0.61319680
   0.46851586  0.43829823  0.61841196
   0.72551263  0.56742383  0.53841874
   0.62376444  0.68875204  0.49063447
   0.51166200  0.35157610  0.65037505
   0.36961633  0.49462366  0.59725403
Co–organic framework                  
           1
     8.679053    0.274363   -0.073412
    -3.835251    7.458274    0.904232
    -3.977825    3.389347   11.056288
   Li   C    O 
   1   2   3
Direct configuration=    29
   0.69378630  0.40837848  0.61387554
   0.46688878  0.44015147  0.61776174
   0.72551085  0.56914705  0.53762139
   0.62411590  0.68866546  0.49064415
   0.51245307  0.34971955  0.65108253
   0.36950289  0.49455592  0.59730569
Co–organic framework                  
           1
     8.751986    0.253392   -0.067663
    -3.886908    7.512343    0.869150
    -4.011386    3.370330   11.071756
   Li   C    O 
   1   2   3
Direct configuration=    30
   0.69497872  0.40526586  0.61522523
   0.46365037  0.44383327  0.61647106
   0.72551008  0.57257518  0.53603481
   0.62481600  0.68849435  0.49066285
   0.51402578  0.34602845  0.65248834
   0.36927683  0.49442083  0.59740875
Co–organic framework                  
           1
     8.782656    0.244573   -0.065246
    -3.908631    7.535080    0.854397
    -4.025499    3.362332   11.078260
   Li   C    O 
   1   2   3
Direct configuration=    31
   0.69547430  0.40397227  0.61578637
   0.46230158  0.44536119  0.61593634
   0.72551206  0.57400165  0.53537431
   0.62510807  0.68842407  0.49067017
   0.51467935  0.34449441  0.65307196
   0.36918244  0.49436435  0.59745188
Co–organic framework                  
           1
     8.793642    0.241414   -0.064380
    -3.916413    7.543225    0.849113
    -4.030555    3.359468   11.080590
   Li   C    O 
   1   2   3
Direct configuration=    32
   0.69565095  0.40351116  0.61598642
   0.46182037  0.44590549  0.61574599
   0.72551310  0.57451037  0.53513871
   0.62521234  0.68839914  0.49067272
   0.51491230  0.34394759  0.65327990
   0.36914872  0.49434417  0.59746730
Co–organic framework                  
           1
     8.814777    0.237290   -0.063503
    -3.929084    7.537509    0.854293
    -4.040945    3.366510   11.075248
   Li   C    O 
   1   2   3
Direct configuration=    33
   0.69628604  0.40440878  0.61552504
   0.46187290  0.44642786  0.61554411
   0.72528322  0.57379065  0.53548933
   0.62523929  0.68799390  0.49085673
   0.51499005  0.34349186  0.65345660
   0.36858629  0.49450489  0.59741922
Co–organic framework                  
           1
     8.878179    0.224915   -0.060871
    -3.967098    7.520362    0.869835
    -4.072114    3.387636   11.059220
   Li   C    O 
   1   2   3
Direct configuration=    34
   0.69819032  0.40710717  0.61413839
   0.46203212  0.44799729  0.61493727
   0.72459251  0.57162769  0.53654303
   0.62531851  0.68677641  0.49140972
   0.51522104  0.34212287  0.65398773
   0.36690329  0.49498652  0.59727490
Co–organic framework                  
           1
     9.004985    0.200167   -0.055608
    -4.043125    7.486068    0.900918
    -4.134452    3.429888   11.027166
   Li   C    O 
   1   2   3
Direct configuration=    35
   0.70199299  0.41253730  0.61134993
   0.46236043  0.45115024  0.61371628
   0.72320474  0.56727883  0.53866166
   0.62546713  0.68433072  0.49252148
   0.51566968  0.33937409  0.65505602
   0.36356282  0.49594676  0.59698567
Co–organic framework                  
           1
     9.021013    0.197038   -0.054942
    -4.052735    7.481733    0.904847
    -4.142332    3.435228   11.023114
   Li   C    O 
   1   2   3
Direct configuration=    36
   0.70247226  0.41323219  0.61099359
   0.46240440  0.45155238  0.61356008
   0.72302770  0.56672327  0.53893233
   0.62548346  0.68401883  0.49266348
   0.51572305  0.33902386  0.65519261
   0.36314692  0.49606740  0.59694896
Co–organic framework                  
           1
     9.090721    0.185593   -0.053309
    -4.093216    7.475998    0.911235
    -4.177023    3.446892   11.012663
   Li   C    O 
   1   2   3
Direct configuration=    37
   0.70417180  0.41272212  0.61109005
   0.46283661  0.45356008  0.61270608
   0.72301445  0.56800476  0.53835646
   0.62521647  0.68201675  0.49361047
   0.51544634  0.33816672  0.65555129
   0.36157212  0.49614750  0.59697669
Co–organic framework                  
           1
     9.299847    0.151256   -0.048410
    -4.214661    7.458793    0.930398
    -4.281095    3.481883   10.981311
   Li   C    O 
   1   2   3
Direct configuration=    38
   0.70922875  0.41119932  0.61137904
   0.46414318  0.45959684  0.61013686
   0.72298682  0.57185657  0.53662445
   0.62440310  0.67599715  0.49645877
   0.51461384  0.33558899  0.65663050
   0.35688211  0.49637906  0.59706142
Co–organic framework                  
           1
     9.718099    0.082583   -0.038612
    -4.457550    7.424384    0.968725
    -4.489239    3.551866   10.918605
   Li   C    O 
   1   2   3
Direct configuration=    39
   0.71910027  0.40819650  0.61195479
   0.46681530  0.47175356  0.60495473
   0.72300261  0.57960500  0.53313363
   0.62270314  0.66387667  0.50219994
   0.51293453  0.33039522  0.65880799
   0.34770194  0.49679098  0.59723996
Co–organic framework                  
           1
     9.428518    0.130129   -0.045396
    -4.289383    7.448208    0.942189
    -4.345128    3.503413   10.962020
   Li   C    O 
   1   2   3
Direct configuration=    40
   0.71257935  0.41022103  0.61155866
   0.46488554  0.46321799  0.60860469
   0.72289766  0.57417534  0.53558869
   0.62397823  0.67238486  0.49816166
   0.51411719  0.33404554  0.65727330
   0.35379983  0.49657317  0.59710404
Co–organic framework                  
           1
     9.513667    0.130134   -0.053317
    -4.327942    7.392049    0.982000
    -4.394141    3.533685   10.931766
   Li   C    O 
   1   2   3
Direct configuration=    41
   0.71563264  0.41202767  0.61047318
   0.46577975  0.46708302  0.60681143
   0.72285410  0.57434197  0.53554030
   0.62289046  0.66717822  0.50066466
   0.51274238  0.33404566  0.65735797
   0.35235846  0.49594139  0.59744349
Co–organic framework                  
           1
     9.769115    0.130147   -0.077082
    -4.443619    7.223573    1.101433
    -4.541179    3.624503   10.841003
   Li   C    O 
   1   2   3
Direct configuration=    42
   0.72473402  0.41751680  0.60718814
   0.46849097  0.47882014  0.60136386
   0.72272714  0.57484755  0.53539234
   0.61958666  0.65136540  0.50826611
   0.50865492  0.33404530  0.65760993
   0.34806408  0.49402274  0.59847066
Co–organic framework                  
           1
     9.773492    0.134922   -0.080401
    -4.441248    7.156450    1.140897
    -4.545800    3.651723   10.801618
   Li   C    O 
   1   2   3
Direct configuration=    43
   0.72775541  0.41655806  0.60736379
   0.46951771  0.48275540  0.59926868
   0.72356518  0.57854384  0.53366156
   0.61630825  0.64351769  0.51219371
   0.50576970  0.33651475  0.65680912
   0.34934155  0.49272819  0.59899419
Co–organic framework                  
           1
     9.786622    0.149247   -0.090361
    -4.434134    6.955081    1.259290
    -4.559661    3.733383   10.683463
   Li   C    O 
   1   2   3
Direct configuration=    44
   0.73680532  0.41363695  0.60791056
   0.47263125  0.49473562  0.59289987
   0.72611064  0.58979265  0.52839390
   0.60640916  0.61963431  0.52413791
   0.49714147  0.34403240  0.65435686
   0.35315995  0.48878599  0.60059193
Co–organic framework                  
           1
     9.778992    0.155988   -0.094403
    -4.425574    6.914761    1.282873
    -4.558344    3.746928   10.662824
   Li   C    O 
   1   2   3
Direct configuration=    45
   0.73817371  0.41447799  0.60740624
   0.47314279  0.49657626  0.59188831
   0.72690010  0.59036752  0.52807988
   0.60427815  0.61555525  0.52621500
   0.49563561  0.34537972  0.65391949
   0.35412742  0.48826118  0.60078212
Co–organic framework                  
           1
     9.756102    0.176212   -0.106530
    -4.399893    6.793801    1.353620
    -4.554394    3.787564   10.600907
   Li   C    O 
   1   2   3
Direct configuration=    46
   0.74228420  0.41701962  0.60588413
   0.47468552  0.50214729  0.58883027
   0.72927188  0.59210505  0.52713159
   0.59786601  0.60321463  0.53249526
   0.49112098  0.34946192  0.65258935
   0.35702921  0.48666943  0.60136045
Co–organic framework                  
           1
     9.710321    0.216660   -0.130785
    -4.348530    6.551881    1.495115
    -4.546494    3.868837   10.477072
   Li   C    O 
   1   2   3
Direct configuration=    47
   0.75053772  0.42221787  0.60278325
   0.47782136  0.51359466  0.58256916
   0.73403620  0.59566034  0.52519611
   0.58492362  0.57789040  0.54536010
   0.48211059  0.35787647  0.64981697
   0.36282830  0.48337821  0.60256546
Co–organic framework                  
           1
     9.746379    0.184802   -0.111682
    -4.388984    6.742421    1.383672
    -4.552716    3.804825   10.574606
   Li   C    O 
   1   2   3
Direct configuration=    48
   0.74398331  0.41792712  0.60532203
   0.47526568  0.50405623  0.58774830
   0.73024925  0.59272300  0.52678681
   0.59531704  0.59893579  0.53470760
   0.48917242  0.35082099  0.65219293
   0.35827009  0.48615481  0.60153338
Co–organic framework                  
           1
     9.748874    0.186252   -0.113554
    -4.389500    6.747335    1.380503
    -4.555225    3.800601   10.578225
   Li   C    O 
   1   2   3
Direct configuration=    49
   0.74358155  0.41920386  0.60477488
   0.47488721  0.50346565  0.58806312
   0.73083201  0.59116822  0.52744666
   0.59509269  0.60041943  0.53404669
   0.48935071  0.34956888  0.65272665
   0.35851362  0.48679190  0.60123304
Co–organic framework                  
           1
     9.754136    0.189310   -0.117502
    -4.390588    6.757697    1.373821
    -4.560517    3.791693   10.585856
   Li   C    O 
   1   2   3
Direct configuration=    50
   0.74273356  0.42189301  0.60362247
   0.47408983  0.50222224  0.58872606
   0.73206181  0.58789333  0.52883647
   0.59461853  0.60354418  0.53265478
   0.48972754  0.34693175  0.65385065
   0.35902652  0.48813343  0.60060062
Co–organic framework                  
           1
     9.763511    0.179838   -0.112504
    -4.401197    6.776555    1.360097
    -4.563029    3.785980   10.587443
   Li   C    O 
   1   2   3
Direct configuration=    51
   0.74254284  0.42140328  0.60386260
   0.47379695  0.50135762  0.58912735
   0.73326019  0.58816741  0.52861484
   0.59328651  0.60531288  0.53196438
   0.48961537  0.34507950  0.65468355
   0.35975593  0.48929724  0.60003832
Co–organic framework                  
           1
     9.791636    0.151422   -0.097513
    -4.433027    6.833126    1.318925
    -4.570565    3.768844   10.592203
   Li   C    O 
   1   2   3
Direct configuration=    52
   0.74197107  0.41993933  0.60458055
   0.47291887  0.49877316  0.59032690
   0.73685341  0.58899239  0.52794904
   0.58929229  0.61058966  0.52990606
   0.48927924  0.33954562  0.65717191
   0.36194290  0.49277778  0.59835657
Co–organic framework                  
           1
     9.847886    0.094588   -0.067529
    -4.496685    6.946269    1.236582
    -4.585637    3.734571   10.601722
   Li   C    O 
   1   2   3
Direct configuration=    53
   0.74082974  0.41704232  0.60600224
   0.47116601  0.49365978  0.59270044
   0.74402836  0.59065839  0.52661219
   0.58131502  0.62097022  0.52586523
   0.48860934  0.32861282  0.66208755
   0.36630931  0.49967440  0.59502339
Co–organic framework                  
           1
     9.859667    0.086579   -0.063829
    -4.507424    6.957344    1.226681
    -4.590148    3.729985   10.599462
   Li   C    O 
   1   2   3
Direct configuration=    54
   0.74066485  0.41764854  0.60574093
   0.47156588  0.49188671  0.59342162
   0.74581417  0.58984090  0.52684264
   0.57884679  0.62275303  0.52526533
   0.48822254  0.32718617  0.66277353
   0.36714356  0.50130259  0.59424698
Co–organic framework                  
           1
     9.893510    0.063574   -0.053200
    -4.538270    6.989155    1.198241
    -4.603107    3.716811   10.592972
   Li   C    O 
   1   2   3
Direct configuration=    55
   0.74019209  0.41938485  0.60499258
   0.47271207  0.48680794  0.59548676
   0.75093881  0.58750575  0.52749919
   0.57176434  0.62785134  0.52355172
   0.48711133  0.32309694  0.66473995
   0.36953915  0.50597112  0.59202084
Co–organic framework                  
           1
     9.900113    0.060900   -0.052174
    -4.543064    6.987666    1.196342
    -4.606099    3.715134   10.588432
   Li   C    O 
   1   2   3
Direct configuration=    56
   0.74015610  0.41833166  0.60547613
   0.47340319  0.48566329  0.59587652
   0.75204083  0.58852085  0.52695025
   0.56998990  0.62764799  0.52379741
   0.48669041  0.32397489  0.66441666
   0.36997737  0.50647925  0.59177407
Co–organic framework                  
           1
     9.913123    0.055631   -0.050153
    -4.552510    6.984733    1.192601
    -4.611994    3.711832   10.579487
   Li   C    O 
   1   2   3
Direct configuration=    57
   0.74008442  0.41625626  0.60642896
   0.47476318  0.48340834  0.59664421
   0.75421174  0.59052217  0.52586820
   0.56649549  0.62724565  0.52428217
   0.48586223  0.32570455  0.66377982
   0.37084073  0.50748097  0.59128767
Co–organic framework                  
           1
     9.920207    0.062035   -0.056289
    -4.551797    6.960613    1.204018
    -4.619503    3.712852   10.568291
   Li   C    O 
   1   2   3
Direct configuration=    58
   0.74034288  0.41683334  0.60614544
   0.47513568  0.48236056  0.59695383
   0.75560381  0.58994679  0.52602301
   0.56412175  0.62625353  0.52494297
   0.48524688  0.32762747  0.66302713
   0.37180680  0.50759625  0.59119866
Co–organic framework                  
           1
     9.923382    0.064905   -0.059040
    -4.551477    6.949802    1.209135
    -4.622869    3.713309   10.563273
   Li   C    O 
   1   2   3
Direct configuration=    59
   0.74045879  0.41709305  0.60601790
   0.47530206  0.48188859  0.59709363
   0.75622692  0.58968692  0.52609333
   0.56305858  0.62580808  0.52523941
   0.48497203  0.32849367  0.66268781
   0.37223941  0.50764761  0.59115896
Co–organic framework                  
           1
     9.933628    0.069931   -0.064699
    -4.553266    6.940329    1.212143
    -4.631783    3.708948   10.558807
   Li   C    O 
   1   2   3
Direct configuration=    60
   0.74066707  0.41683492  0.60611870
   0.47452018  0.48241799  0.59684130
   0.75702662  0.58998257  0.52589773
   0.56232368  0.62524917  0.52556824
   0.48472750  0.32899993  0.66250150
   0.37299274  0.50713335  0.59136357
Co–organic framework                  
           1
     9.955529    0.080677   -0.076797
    -4.557089    6.920079    1.218573
    -4.650839    3.699626   10.549259
   Li   C    O 
   1   2   3
Direct configuration=    61
   0.74111163  0.41628186  0.60633482
   0.47285098  0.48355301  0.59630010
   0.75873391  0.59061359  0.52548025
   0.56075471  0.62405449  0.52627094
   0.48420567  0.33008424  0.66210224
   0.37460089  0.50603075  0.59180268
Co–organic framework                  
           1
     9.997586    0.087988   -0.087165
    -4.572437    6.910973    1.220770
    -4.678709    3.690651   10.545960
   Li   C    O 
   1   2   3
Direct configuration=    62
   0.74143758  0.41612390  0.60638023
   0.47246286  0.48381214  0.59615148
   0.75958706  0.59082592  0.52531965
   0.56062056  0.62405365  0.52630832
   0.48393314  0.33039323  0.66200553
   0.37421659  0.50540910  0.59212583
Co–organic framework                  
           1
    10.123756    0.109922   -0.118271
    -4.618479    6.883656    1.227363
    -4.762318    3.663724   10.536060
   Li   C    O 
   1   2   3
Direct configuration=    63
   0.74241060  0.41564789  0.60651780
   0.47130374  0.48459207  0.59570390
   0.76213485  0.59145920  0.52484039
   0.56022028  0.62405189  0.52642004
   0.48312006  0.33132255  0.66171408
   0.37306826  0.50354433  0.59309484
Co–organic framework                  
           1
    10.376097    0.153791   -0.180482
    -4.710564    6.829021    1.240547
    -4.929538    3.609870   10.516262
   Li   C    O 
   1   2   3
Direct configuration=    64
   0.74432825  0.41468332  0.60680067
   0.46901615  0.48616685  0.59479870
   0.76716191  0.59270384  0.52389701
   0.55943241  0.62405294  0.52664092
   0.48152050  0.33319523  0.66112332
   0.37079857  0.49981575  0.59503042
Co–organic framework                  
           1
    10.445849    0.162414   -0.196320
    -4.737967    6.803751    1.246722
    -4.975856    3.597156   10.498065
   Li   C    O 
   1   2   3
Direct configuration=    65
   0.74523866  0.41626179  0.60600673
   0.46884270  0.48726998  0.59419914
   0.76849990  0.59116214  0.52450178
   0.55848105  0.62375279  0.52689812
   0.48087566  0.33323923  0.66119057
   0.37031983  0.49893200  0.59549470
Co–organic framework                  
           1
    10.405590    0.157437   -0.187179
    -4.722150    6.818336    1.243158
    -4.949122    3.604494   10.508568
   Li   C    O 
   1   2   3
Direct configuration=    66
   0.74471568  0.41534836  0.60646584
   0.46894152  0.48663073  0.59454659
   0.76773451  0.59205689  0.52414998
   0.55902628  0.62392555  0.52675012
   0.48124499  0.33321297  0.66115231
   0.37059481  0.49944344  0.59522620
Co–organic framework                  
           1
    10.427005    0.154921   -0.189492
    -4.733804    6.812995    1.238112
    -4.962630    3.595530   10.494672
   Li   C    O 
   1   2   3
Direct configuration=    67