 174 174   0   0
  0.2273663E+02  0.2578932E-08  0.2566082E-08  0.6854703E-09  0.5000000E-15
  1.000000000000000E-004
  CAR 
 Co–organic framework                  
      7.08642307    -28.11117245  301     -0.77191038      1.00000000
    -28.111  0.0000E+00  0.0000E+00  0.0000E+00  0.0000E+00
    -27.994  0.0000E+00  0.0000E+00  0.0000E+00  0.0000E+00
    -27.877  0.0000E+00  0.0000E+00  0.0000E+00  0.0000E+00
    -27.759  0.0000E+00  0.0000E+00  0.0000E+00  0.0000E+00
    -27.642  0.0000E+00  0.0000E+00  0.0000E+00  0.0000E+00
    -27.525  0.0000E+00  0.0000E+00  0.0000E+00  0.0000E+00
    -27.407  0.0000E+00  0.0000E+00  0.0000E+00  0.0000E+00
    -27.290  0.0000E+00  0.0000E+00  0.0000E+00  0.0000E+00
    -27.173  0.0000E+00  0.0000E+00  0.0000E+00  0.0000E+00
    -27.055  0.0000E+00  0.0000E+00  0.0000E+00  0.0000E+00
    -26.938  0.0000E+00  0.0000E+00  0.0000E+00  0.0000E+00
    -26.821  0.0000E+00  0.0000E+00  0.0000E+00  0.0000E+00
    -26.703  0.2334E-09  0.2399E-09  0.2739E-10  0.2814E-10
    -26.586  0.1461E-03  0.1479E-03  0.1715E-04  0.1735E-04
    -26.469  0.7399E-02  0.7406E-02  0.8853E-03  0.8862E-03
    -26.351  0.9777E-03  0.9697E-03  0.1000E-02  0.1000E-02
    -26.234  0.2631E-07  0.2572E-07  0.1000E-02  0.1000E-02
    -26.117  0.1893E-16  0.1893E-16  0.1000E-02  0.1000E-02
    -25.999  0.0000E+00  0.0000E+00  0.1000E-02  0.1000E-02
    -25.882  0.0000E+00  0.0000E+00  0.1000E-02  0.1000E-02
    -25.765  0.4475E-14  0.4597E-14  0.1000E-02  0.1000E-02
    -25.647  0.6035E-06  0.6126E-06  0.1000E-02  0.1000E-02
    -25.530  0.2669E-02  0.2680E-02  0.1313E-02  0.1314E-02
    -25.413  0.5834E-02  0.5823E-02  0.1998E-02  0.1998E-02
    -25.295  0.1974E-04  0.1951E-04  0.2000E-02  0.2000E-02
    -25.178  0.3301E-11  0.3225E-11  0.2000E-02  0.2000E-02
    -25.061  0.0000E+00  0.0000E+00  0.2000E-02  0.2000E-02
    -24.943  0.1162E-09  0.1029E-09  0.2000E-02  0.2000E-02
    -24.826  0.1070E-03  0.1013E-03  0.2013E-02  0.2012E-02
    -24.709  0.7617E-02  0.7235E-02  0.2906E-02  0.2861E-02
    -24.591  0.8891E-02  0.7907E-02  0.3949E-02  0.3788E-02
    -24.474  0.4313E-03  0.1803E-02  0.4000E-02  0.4000E-02
    -24.357  0.2157E-02  0.3347E-03  0.4253E-02  0.4039E-02
    -24.239  0.6409E-02  0.1067E-01  0.5005E-02  0.5291E-02
    -24.122  0.2067E-01  0.9697E-02  0.7430E-02  0.6428E-02
    -24.005  0.3634E-01  0.3443E-01  0.1169E-01  0.1047E-01
    -23.887  0.5667E-01  0.3934E-01  0.1834E-01  0.1508E-01
    -23.770  0.1379E-01  0.3979E-01  0.1996E-01  0.1975E-01
    -23.653  0.3339E-03  0.2111E-02  0.2000E-01  0.2000E-01
    -23.535  0.1596E-08  0.1586E-06  0.2000E-01  0.2000E-01
    -23.418  0.2868E-09  0.3270E-10  0.2000E-01  0.2000E-01
    -23.301  0.1600E-03  0.5970E-04  0.2002E-01  0.2001E-01
    -23.184  0.7445E-02  0.6806E-02  0.2089E-01  0.2081E-01
    -23.066  0.2897E-02  0.1874E-02  0.2123E-01  0.2103E-01
    -22.949  0.1465E-01  0.1396E-01  0.2295E-01  0.2266E-01
    -22.832  0.4205E-03  0.2870E-02  0.2300E-01  0.2300E-01
    -22.714  0.1837E-08  0.2487E-06  0.2300E-01  0.2300E-01
    -22.597  0.2417E-04  0.4700E-06  0.2300E-01  0.2300E-01
    -22.480  0.7409E-02  0.2541E-02  0.2387E-01  0.2330E-01
    -22.362  0.3235E-01  0.1890E-01  0.2767E-01  0.2552E-01
    -22.245  0.6257E-01  0.3891E-01  0.3501E-01  0.3008E-01
    -22.128  0.3374E-01  0.3873E-01  0.3897E-01  0.3462E-01
    -22.010  0.1762E-01  0.4828E-01  0.4103E-01  0.4029E-01
    -21.893  0.1547E-01  0.1725E-01  0.4285E-01  0.4231E-01
    -21.776  0.3218E-02  0.1021E-01  0.4323E-01  0.4351E-01
    -21.658  0.3881E-01  0.2181E-01  0.4778E-01  0.4607E-01
    -21.541  0.6382E-01  0.3769E-01  0.5527E-01  0.5049E-01
    -21.424  0.2261E-01  0.6097E-01  0.5792E-01  0.5765E-01
    -21.306  0.6732E-03  0.3024E-02  0.5800E-01  0.5800E-01
    -21.189  0.6968E-08  0.2961E-06  0.5800E-01  0.5800E-01
    -21.072  0.0000E+00  0.1242E-14  0.5800E-01  0.5800E-01
    -20.954  0.0000E+00  0.0000E+00  0.5800E-01  0.5800E-01
    -20.837  0.0000E+00  0.0000E+00  0.5800E-01  0.5800E-01
    -20.720  0.0000E+00  0.0000E+00  0.5800E-01  0.5800E-01
    -20.602  0.7712E-16  0.4731E-17  0.5800E-01  0.5800E-01
    -20.485  0.5939E-07  0.1106E-07  0.5800E-01  0.5800E-01
    -20.368  0.1298E-02  0.7116E-03  0.5815E-01  0.5808E-01
    -20.250  0.7131E-02  0.7587E-02  0.5899E-01  0.5897E-01
    -20.133  0.9335E-04  0.2250E-03  0.5900E-01  0.5900E-01
    -20.016  0.8598E-10  0.6309E-09  0.5900E-01  0.5900E-01
    -19.898  0.5752E-07  0.1333E-13  0.5900E-01  0.5900E-01
    -19.781  0.1284E-02  0.1103E-05  0.5915E-01  0.5900E-01
    -19.664  0.7144E-02  0.3143E-02  0.5999E-01  0.5937E-01
    -19.546  0.9508E-04  0.5367E-02  0.6000E-01  0.6000E-01
    -19.429  0.8952E-10  0.1214E-04  0.6000E-01  0.6000E-01
    -19.312  0.0000E+00  0.1252E-11  0.6000E-01  0.6000E-01
    -19.194  0.0000E+00  0.0000E+00  0.6000E-01  0.6000E-01
    -19.077  0.0000E+00  0.0000E+00  0.6000E-01  0.6000E-01
    -18.960  0.0000E+00  0.0000E+00  0.6000E-01  0.6000E-01
    -18.842  0.0000E+00  0.0000E+00  0.6000E-01  0.6000E-01
    -18.725  0.4078E-15  0.2460E-16  0.6000E-01  0.6000E-01
    -18.608  0.1558E-06  0.3039E-07  0.6000E-01  0.6000E-01
    -18.490  0.1782E-02  0.1029E-02  0.6021E-01  0.6012E-01
    -18.373  0.6690E-02  0.7359E-02  0.6099E-01  0.6098E-01
    -18.256  0.5164E-04  0.1354E-03  0.6100E-01  0.6100E-01
    -18.139  0.4630E-08  0.2060E-06  0.6100E-01  0.6100E-01
    -18.021  0.6196E-03  0.1962E-02  0.6107E-01  0.6123E-01
    -17.904  0.2533E-01  0.1523E-01  0.6404E-01  0.6302E-01
    -17.787  0.3802E-01  0.4006E-01  0.6850E-01  0.6772E-01
    -17.669  0.4219E-02  0.1085E-01  0.6900E-01  0.6899E-01
    -17.552  0.1045E-05  0.9073E-04  0.6900E-01  0.6900E-01
    -17.435  0.1180E-13  0.7994E-10  0.6900E-01  0.6900E-01
    -17.317  0.0000E+00  0.0000E+00  0.6900E-01  0.6900E-01
    -17.200  0.0000E+00  0.0000E+00  0.6900E-01  0.6900E-01
    -17.083  0.0000E+00  0.0000E+00  0.6900E-01  0.6900E-01
    -16.965  0.0000E+00  0.0000E+00  0.6900E-01  0.6900E-01
    -16.848  0.2820E-11  0.2897E-12  0.6900E-01  0.6900E-01
    -16.731  0.1825E-04  0.5724E-05  0.6900E-01  0.6900E-01
    -16.613  0.5760E-02  0.4636E-02  0.6968E-01  0.6954E-01
    -16.496  0.2744E-02  0.3879E-02  0.7000E-01  0.7000E-01
    -16.379  0.6675E-06  0.2573E-05  0.7000E-01  0.7000E-01
    -16.261  0.1168E-03  0.4866E-03  0.7001E-01  0.7006E-01
    -16.144  0.7596E-02  0.7799E-02  0.7090E-01  0.7097E-01
    -16.027  0.2106E-01  0.1470E-01  0.7338E-01  0.7270E-01
    -15.909  0.3802E-01  0.4026E-01  0.7784E-01  0.7742E-01
    -15.792  0.1392E-02  0.4943E-02  0.7800E-01  0.7800E-01
    -15.675  0.3081E-07  0.2345E-05  0.7800E-01  0.7800E-01
    -15.557  0.2460E-16  0.5299E-13  0.7800E-01  0.7800E-01
    -15.440  0.1865E-13  0.2285E-14  0.7800E-01  0.7800E-01
    -15.323  0.1325E-05  0.4145E-06  0.7800E-01  0.7800E-01
    -15.205  0.3296E-02  0.2398E-02  0.7839E-01  0.7828E-01
    -15.088  0.5216E-02  0.6099E-02  0.7900E-01  0.7900E-01
    -14.971  0.1039E-04  0.2622E-04  0.7900E-01  0.7900E-01
    -14.853  0.1944E-06  0.2250E-05  0.7900E-01  0.7900E-01
    -14.736  0.3043E-02  0.3897E-02  0.7936E-01  0.7946E-01
    -14.619  0.3175E-01  0.1917E-01  0.8308E-01  0.8171E-01
    -14.501  0.2802E-01  0.3300E-01  0.8637E-01  0.8558E-01
    -14.384  0.5370E-02  0.1186E-01  0.8700E-01  0.8697E-01
    -14.267  0.2707E-05  0.2515E-03  0.8700E-01  0.8700E-01
    -14.149  0.2124E-04  0.4317E-05  0.8700E-01  0.8700E-01
    -14.032  0.5904E-02  0.4366E-02  0.8770E-01  0.8751E-01
    -13.915  0.3550E-02  0.7443E-02  0.8811E-01  0.8839E-01
    -13.797  0.7420E-02  0.5223E-02  0.8898E-01  0.8900E-01
    -13.680  0.1521E-03  0.1043E-04  0.8900E-01  0.8900E-01
    -13.563  0.1823E-02  0.2247E-03  0.8921E-01  0.8903E-01
    -13.446  0.2878E-01  0.2097E-01  0.9259E-01  0.9149E-01
    -13.328  0.2873E-01  0.3539E-01  0.9596E-01  0.9564E-01
    -13.211  0.3332E-03  0.3069E-02  0.9600E-01  0.9600E-01
    -13.094  0.6630E-09  0.2329E-06  0.9600E-01  0.9600E-01
    -12.976  0.1033E-07  0.2059E-06  0.9600E-01  0.9600E-01
    -12.859  0.6935E-03  0.1944E-02  0.9608E-01  0.9623E-01
    -12.742  0.7597E-02  0.6536E-02  0.9697E-01  0.9699E-01
    -12.624  0.2324E-03  0.4293E-04  0.9700E-01  0.9700E-01
    -12.507  0.2109E-06  0.2889E-07  0.9700E-01  0.9700E-01
    -12.390  0.1956E-02  0.1011E-02  0.9723E-01  0.9712E-01
    -12.272  0.6524E-02  0.7374E-02  0.9800E-01  0.9798E-01
    -12.155  0.4233E-04  0.1392E-03  0.9800E-01  0.9800E-01
    -12.038  0.1070E-05  0.1205E-06  0.9800E-01  0.9800E-01
    -11.920  0.3136E-02  0.1644E-02  0.9837E-01  0.9819E-01
    -11.803  0.1584E-01  0.1159E-01  0.1002E+00  0.9955E-01
    -11.686  0.3893E-01  0.3571E-01  0.1048E+00  0.1037E+00
    -11.568  0.2064E-01  0.2581E-01  0.1072E+00  0.1068E+00
    -11.451  0.2389E-01  0.1978E-01  0.1100E+00  0.1091E+00
    -11.334  0.2905E-01  0.2658E-01  0.1134E+00  0.1122E+00
    -11.216  0.1693E-01  0.2243E-01  0.1154E+00  0.1148E+00
    -11.099  0.1047E-01  0.1639E-01  0.1166E+00  0.1168E+00
    -10.982  0.1026E-01  0.6971E-02  0.1178E+00  0.1176E+00
    -10.864  0.6773E-02  0.4345E-02  0.1186E+00  0.1181E+00
    -10.747  0.1781E-01  0.1268E-01  0.1207E+00  0.1196E+00
    -10.630  0.7983E-02  0.1417E-01  0.1217E+00  0.1212E+00
    -10.512  0.1705E-01  0.8811E-02  0.1237E+00  0.1223E+00
    -10.395  0.1313E-01  0.2437E-01  0.1252E+00  0.1251E+00
    -10.278  0.1128E-01  0.9764E-02  0.1265E+00  0.1263E+00
    -10.160  0.1950E-01  0.1411E-01  0.1288E+00  0.1279E+00
    -10.043  0.2614E-01  0.2500E-01  0.1319E+00  0.1309E+00
     -9.926  0.3443E-01  0.2529E-01  0.1359E+00  0.1338E+00
     -9.808  0.2455E-01  0.3072E-01  0.1388E+00  0.1374E+00
     -9.691  0.1900E-01  0.1569E-01  0.1410E+00  0.1393E+00
     -9.574  0.2683E-01  0.2642E-01  0.1442E+00  0.1424E+00
     -9.456  0.1687E-01  0.2715E-01  0.1462E+00  0.1456E+00
     -9.339  0.3058E-01  0.2561E-01  0.1497E+00  0.1486E+00
     -9.222  0.3305E-01  0.2759E-01  0.1536E+00  0.1518E+00
     -9.104  0.3054E-01  0.3467E-01  0.1572E+00  0.1559E+00
     -8.987  0.3709E-01  0.2966E-01  0.1616E+00  0.1594E+00
     -8.870  0.3562E-01  0.3859E-01  0.1657E+00  0.1639E+00
     -8.752  0.3383E-01  0.3607E-01  0.1697E+00  0.1681E+00
     -8.635  0.3644E-01  0.2318E-01  0.1740E+00  0.1708E+00
     -8.518  0.3471E-01  0.4523E-01  0.1781E+00  0.1761E+00
     -8.401  0.4141E-01  0.3660E-01  0.1829E+00  0.1804E+00
     -8.283  0.2501E-01  0.3802E-01  0.1858E+00  0.1849E+00
     -8.166  0.1249E-01  0.1792E-01  0.1873E+00  0.1870E+00
     -8.049  0.3367E-01  0.2425E-01  0.1913E+00  0.1898E+00
     -7.931  0.3198E-01  0.3200E-01  0.1950E+00  0.1936E+00
     -7.814  0.2576E-01  0.2958E-01  0.1980E+00  0.1971E+00
     -7.697  0.2734E-01  0.2410E-01  0.2012E+00  0.1999E+00
     -7.579  0.2432E-01  0.3469E-01  0.2041E+00  0.2040E+00
     -7.462  0.2008E-01  0.1018E-01  0.2065E+00  0.2052E+00
     -7.345  0.3306E-01  0.2146E-01  0.2103E+00  0.2077E+00
     -7.227  0.3621E-01  0.3586E-01  0.2146E+00  0.2119E+00
     -7.110  0.1516E-01  0.2821E-01  0.2164E+00  0.2152E+00
     -6.993  0.5365E-01  0.2832E-01  0.2227E+00  0.2185E+00
     -6.875  0.7632E-01  0.7087E-01  0.2316E+00  0.2268E+00
     -6.758  0.5224E-01  0.6178E-01  0.2377E+00  0.2341E+00
     -6.641  0.2745E-01  0.3229E-01  0.2410E+00  0.2379E+00
     -6.523  0.2053E-01  0.3740E-01  0.2434E+00  0.2423E+00
     -6.406  0.1397E-01  0.2792E-01  0.2450E+00  0.2455E+00
     -6.289  0.1449E-01  0.4032E-02  0.2467E+00  0.2460E+00
     -6.171  0.3643E-01  0.1721E-01  0.2510E+00  0.2480E+00
     -6.054  0.2447E-01  0.3409E-01  0.2539E+00  0.2520E+00
     -5.937  0.5203E-02  0.1870E-01  0.2545E+00  0.2542E+00
     -5.819  0.2977E-01  0.1210E-01  0.2580E+00  0.2556E+00
     -5.702  0.3660E-01  0.1990E-01  0.2623E+00  0.2580E+00
     -5.585  0.2235E-01  0.2004E-01  0.2649E+00  0.2603E+00
     -5.467  0.2130E-01  0.2555E-01  0.2674E+00  0.2633E+00
     -5.350  0.3179E-01  0.1564E-01  0.2711E+00  0.2652E+00
     -5.233  0.4476E-01  0.3675E-01  0.2764E+00  0.2695E+00
     -5.115  0.5633E-01  0.5279E-01  0.2830E+00  0.2757E+00
     -4.998  0.4050E-01  0.3403E-01  0.2877E+00  0.2797E+00
     -4.881  0.3617E-01  0.2745E-01  0.2920E+00  0.2829E+00
     -4.763  0.2123E-01  0.3836E-01  0.2944E+00  0.2874E+00
     -4.646  0.3269E-01  0.4165E-01  0.2983E+00  0.2923E+00
     -4.529  0.3647E-01  0.2963E-01  0.3026E+00  0.2957E+00
     -4.411  0.5787E-01  0.6480E-01  0.3094E+00  0.3033E+00
     -4.294  0.5318E-01  0.3876E-01  0.3156E+00  0.3079E+00
     -4.177  0.4942E-01  0.3399E-01  0.3214E+00  0.3119E+00
     -4.059  0.3937E-01  0.4076E-01  0.3260E+00  0.3167E+00
     -3.942  0.2475E-01  0.5266E-01  0.3289E+00  0.3228E+00
     -3.825  0.1621E-01  0.3046E-01  0.3308E+00  0.3264E+00
     -3.708  0.2756E-01  0.4070E-01  0.3340E+00  0.3312E+00
     -3.590  0.3447E-01  0.1911E-01  0.3381E+00  0.3334E+00
     -3.473  0.4026E-01  0.1753E-01  0.3428E+00  0.3355E+00
     -3.356  0.5124E-01  0.4914E-01  0.3488E+00  0.3412E+00
     -3.238  0.5176E-01  0.4780E-01  0.3549E+00  0.3469E+00
     -3.121  0.2753E-01  0.2909E-01  0.3581E+00  0.3503E+00
     -3.004  0.1209E-01  0.1106E-01  0.3595E+00  0.3516E+00
     -2.886  0.4213E-01  0.2650E-01  0.3645E+00  0.3547E+00
     -2.769  0.7700E-01  0.4038E-01  0.3735E+00  0.3594E+00
     -2.652  0.7042E-01  0.2520E-01  0.3818E+00  0.3624E+00
     -2.534  0.4772E-01  0.1221E-01  0.3874E+00  0.3638E+00
     -2.417  0.5310E-01  0.3284E-01  0.3936E+00  0.3677E+00
     -2.300  0.2885E-01  0.9900E-02  0.3970E+00  0.3688E+00
     -2.182  0.1489E-01  0.2117E-01  0.3987E+00  0.3713E+00
     -2.065  0.7596E-02  0.3192E-01  0.3996E+00  0.3750E+00
     -1.948  0.5485E-01  0.1985E-01  0.4061E+00  0.3774E+00
     -1.830  0.1296E-01  0.1136E-01  0.4076E+00  0.3787E+00
     -1.713  0.3160E-01  0.1314E-01  0.4113E+00  0.3803E+00
     -1.596  0.2595E-01  0.1623E-01  0.4143E+00  0.3822E+00
     -1.478  0.2537E-01  0.2328E-01  0.4173E+00  0.3849E+00
     -1.361  0.3351E-01  0.3990E-01  0.4213E+00  0.3896E+00
     -1.244  0.3290E-01  0.4286E-01  0.4251E+00  0.3946E+00
     -1.126  0.2357E-01  0.3954E-01  0.4279E+00  0.3992E+00
     -1.009  0.2711E-01  0.6796E-01  0.4311E+00  0.4072E+00
     -0.892  0.8001E-02  0.2358E-01  0.4320E+00  0.4100E+00
     -0.774  0.8735E-05  0.8437E-02  0.4320E+00  0.4110E+00
     -0.657  0.5826E-03  0.1659E-01  0.4321E+00  0.4129E+00
     -0.540  0.1350E-01  0.1741E-01  0.4337E+00  0.4150E+00
     -0.422  0.2358E-01  0.3353E-01  0.4364E+00  0.4189E+00
     -0.305  0.4955E-02  0.3841E-01  0.4370E+00  0.4234E+00
     -0.188  0.2566E-03  0.1106E-01  0.4370E+00  0.4247E+00
     -0.070  0.7625E-02  0.2623E-02  0.4379E+00  0.4250E+00
      0.047  0.1726E-02  0.2648E-02  0.4381E+00  0.4253E+00
      0.164  0.1596E-01  0.2252E-01  0.4400E+00  0.4280E+00
      0.282  0.1720E-01  0.5270E-01  0.4420E+00  0.4341E+00
      0.399  0.1409E-01  0.2400E-01  0.4437E+00  0.4370E+00
      0.516  0.1194E-01  0.2861E-02  0.4451E+00  0.4373E+00
      0.634  0.4082E-01  0.2545E-01  0.4499E+00  0.4403E+00
      0.751  0.2625E-01  0.4736E-01  0.4529E+00  0.4458E+00
      0.868  0.1857E-01  0.4544E-01  0.4551E+00  0.4512E+00
      0.986  0.1496E-01  0.3908E-01  0.4569E+00  0.4557E+00
      1.103  0.1068E-02  0.9952E-02  0.4570E+00  0.4569E+00
      1.220  0.7996E-05  0.7379E-03  0.4570E+00  0.4570E+00
      1.337  0.4956E-02  0.3547E-06  0.4576E+00  0.4570E+00
      1.455  0.3558E-02  0.2267E-02  0.4580E+00  0.4573E+00
      1.572  0.2319E-02  0.6613E-02  0.4583E+00  0.4580E+00
      1.689  0.6197E-02  0.7725E-02  0.4590E+00  0.4589E+00
      1.807  0.8102E-02  0.2626E-02  0.4599E+00  0.4593E+00
      1.924  0.9211E-02  0.1462E-01  0.4610E+00  0.4610E+00
      2.041  0.9118E-02  0.6887E-02  0.4621E+00  0.4618E+00
      2.159  0.1978E-01  0.1392E-01  0.4644E+00  0.4634E+00
      2.276  0.1185E-01  0.1604E-01  0.4658E+00  0.4653E+00
      2.393  0.5108E-01  0.2887E-01  0.4718E+00  0.4687E+00
      2.511  0.5454E-01  0.6021E-01  0.4782E+00  0.4757E+00
      2.628  0.3123E-01  0.4048E-01  0.4819E+00  0.4805E+00
      2.745  0.8141E-02  0.1054E-01  0.4828E+00  0.4817E+00
      2.863  0.6547E-02  0.1345E-01  0.4836E+00  0.4833E+00
      2.980  0.1403E-01  0.5938E-02  0.4852E+00  0.4840E+00
      3.097  0.8436E-02  0.1336E-01  0.4862E+00  0.4856E+00
      3.215  0.1304E-01  0.1253E-01  0.4878E+00  0.4870E+00
      3.332  0.1960E-01  0.1531E-01  0.4901E+00  0.4888E+00
      3.449  0.1926E-01  0.1023E-01  0.4923E+00  0.4900E+00
      3.567  0.1506E-01  0.2825E-01  0.4941E+00  0.4934E+00
      3.684  0.1675E-01  0.1883E-01  0.4960E+00  0.4956E+00
      3.801  0.1099E-01  0.6102E-02  0.4973E+00  0.4963E+00
      3.919  0.2013E-01  0.2442E-01  0.4997E+00  0.4991E+00
      4.036  0.1516E-01  0.1365E-01  0.5015E+00  0.5007E+00
      4.153  0.2393E-01  0.1969E-01  0.5043E+00  0.5031E+00
      4.271  0.2695E-01  0.2473E-01  0.5074E+00  0.5060E+00
      4.388  0.2924E-01  0.2869E-01  0.5109E+00  0.5093E+00
      4.505  0.1783E-01  0.2040E-01  0.5130E+00  0.5117E+00
      4.623  0.2266E-01  0.1951E-01  0.5156E+00  0.5140E+00
      4.740  0.3159E-01  0.2814E-01  0.5193E+00  0.5173E+00
      4.857  0.2352E-01  0.2728E-01  0.5221E+00  0.5205E+00
      4.975  0.3567E-01  0.3053E-01  0.5263E+00  0.5241E+00
      5.092  0.3812E-01  0.3935E-01  0.5308E+00  0.5287E+00
      5.209  0.2824E-01  0.3592E-01  0.5341E+00  0.5329E+00
      5.327  0.1846E-01  0.2003E-01  0.5362E+00  0.5353E+00
      5.444  0.2874E-01  0.2144E-01  0.5396E+00  0.5378E+00
      5.561  0.3395E-02  0.1868E-01  0.5400E+00  0.5400E+00
      5.679  0.2213E-06  0.1758E-03  0.5400E+00  0.5400E+00
      5.796  0.6245E-15  0.2433E-09  0.5400E+00  0.5400E+00
      5.913  0.0000E+00  0.0000E+00  0.5400E+00  0.5400E+00
      6.030  0.0000E+00  0.0000E+00  0.5400E+00  0.5400E+00
      6.148  0.0000E+00  0.0000E+00  0.5400E+00  0.5400E+00
      6.265  0.0000E+00  0.0000E+00  0.5400E+00  0.5400E+00
      6.382  0.0000E+00  0.0000E+00  0.5400E+00  0.5400E+00
      6.500  0.0000E+00  0.0000E+00  0.5400E+00  0.5400E+00
      6.617  0.0000E+00  0.0000E+00  0.5400E+00  0.5400E+00
      6.734  0.0000E+00  0.0000E+00  0.5400E+00  0.5400E+00
      6.852  0.0000E+00  0.0000E+00  0.5400E+00  0.5400E+00
      6.969  0.0000E+00  0.0000E+00  0.5400E+00  0.5400E+00
      7.086  0.0000E+00  0.0000E+00  0.5400E+00  0.5400E+00
