  174  174 1000    2
  0.2273663E+02  0.2578932E-08  0.2566082E-08  0.6854703E-09  0.5000000E-15
  1.000000000000000E-004
  CAR 
 Co–organic framework                  
    843      1    540
