 running on   24 total cores
 distrk:  each k-point on   24 cores,    1 groups
 distr:  one band on    4 cores,    6 groups
 using from now: INCAR     
 vasp.5.4.4.18Apr17-6-g9f103f2a35 (build May 21 2019 18:55:53) complex          
  
 POSCAR found type information on POSCAR  O  C  H  Co Li
 POSCAR found :  5 types and     174 ions
 LDA part: xc-table for Pade appr. of Perdew
 POSCAR found type information on POSCAR  O  C  H  Co Li
 POSCAR found :  5 types and     174 ions
 POSCAR, INCAR and KPOINTS ok, starting setup
 FFT: planning ...
 WAVECAR not read
 WARNING: random wavefunctions but no delay for mixing, default for NELMDL
 entering main loop
       N       E                     dE             d eps       ncg     rms          rms(c)
DAV:   1     0.902985989305E+04    0.90299E+04   -0.36288E+05  2160   0.136E+03
DAV:   2     0.758744871429E+03   -0.82711E+04   -0.74670E+04  2544   0.424E+02
DAV:   3    -0.131991332317E+04   -0.20787E+04   -0.19682E+04  3576   0.212E+02
DAV:   4    -0.147455112732E+04   -0.15464E+03   -0.14395E+03  3384   0.650E+01
DAV:   5    -0.148265243281E+04   -0.81013E+01   -0.75790E+01  3600   0.144E+01    0.162E+02
RMM:   6    -0.199653119556E+04   -0.51388E+03   -0.35215E+03  2920   0.131E+02    0.523E+02
RMM:   7    -0.175094716707E+04    0.24558E+03   -0.25630E+02  2179   0.449E+01    0.323E+02
RMM:   8    -0.128457524165E+04    0.46637E+03   -0.55236E+02  2436   0.445E+01    0.853E+01
RMM:   9    -0.151879562002E+04   -0.23422E+03   -0.10764E+02  2341   0.190E+01    0.176E+02
RMM:  10    -0.138909203774E+04    0.12970E+03   -0.11782E+02  2229   0.247E+01    0.151E+02
RMM:  11    -0.132464019288E+04    0.64452E+02   -0.83094E+01  2301   0.197E+01    0.119E+02
RMM:  12    -0.131288611477E+04    0.11754E+02   -0.42888E+01  2300   0.140E+01    0.109E+02
RMM:  13    -0.130831061034E+04    0.45755E+01   -0.53567E+01  2188   0.161E+01    0.113E+02
RMM:  14    -0.127576243441E+04    0.32548E+02   -0.31935E+01  2260   0.122E+01    0.959E+01
RMM:  15    -0.126304259572E+04    0.12720E+02   -0.12991E+01  2353   0.708E+00    0.827E+01
RMM:  16    -0.125660538842E+04    0.64372E+01   -0.94413E+00  2268   0.599E+00    0.719E+01
RMM:  17    -0.126087288575E+04   -0.42675E+01   -0.10932E+01  2301   0.692E+00    0.737E+01
RMM:  18    -0.125432959858E+04    0.65433E+01   -0.54126E+00  2303   0.461E+00    0.619E+01
RMM:  19    -0.124964904681E+04    0.46806E+01   -0.35114E+00  2326   0.364E+00    0.404E+01
RMM:  20    -0.125006249630E+04   -0.41345E+00   -0.23329E+00  2307   0.299E+00    0.401E+01
RMM:  21    -0.124927126022E+04    0.79124E+00   -0.10029E+00  2273   0.205E+00    0.343E+01
RMM:  22    -0.124963646280E+04   -0.36520E+00   -0.74724E-01  2381   0.169E+00    0.344E+01
RMM:  23    -0.125050745377E+04   -0.87099E+00   -0.70309E-01  2274   0.163E+00    0.313E+01
RMM:  24    -0.125147250746E+04   -0.96505E+00   -0.38009E-01  2313   0.121E+00    0.284E+01
RMM:  25    -0.125178720924E+04   -0.31470E+00   -0.23026E-01  2306   0.983E-01    0.259E+01
RMM:  26    -0.125206587210E+04   -0.27866E+00   -0.10686E-01  2258   0.661E-01    0.267E+01
RMM:  27    -0.125243884396E+04   -0.37297E+00   -0.98158E-02  2306   0.616E-01    0.306E+01
RMM:  28    -0.125277518612E+04   -0.33634E+00   -0.15379E-01  2252   0.759E-01    0.276E+01
RMM:  29    -0.125280511352E+04   -0.29927E-01   -0.35773E-02  2300   0.390E-01    0.280E+01
RMM:  30    -0.125280681228E+04   -0.16988E-02   -0.10938E-02  2446   0.211E-01    0.281E+01
RMM:  31    -0.125281651542E+04   -0.97031E-02   -0.36343E-03  2320   0.111E-01    0.280E+01
RMM:  32    -0.125304452432E+04   -0.22801E+00   -0.24906E-02  2249   0.287E-01    0.293E+01
RMM:  33    -0.125325155202E+04   -0.20703E+00   -0.28094E-02  2267   0.346E-01    0.272E+01
RMM:  34    -0.125332059315E+04   -0.69041E-01   -0.15586E-02  2220   0.265E-01    0.273E+01
RMM:  35    -0.125357231750E+04   -0.25172E+00   -0.35454E-02  2251   0.368E-01    0.272E+01
RMM:  36    -0.125385182271E+04   -0.27951E+00   -0.73270E-02  2307   0.499E-01    0.278E+01
RMM:  37    -0.125433426519E+04   -0.48244E+00   -0.12753E-01  2284   0.655E-01    0.266E+01
RMM:  38    -0.125451910784E+04   -0.18484E+00   -0.62154E-02  2366   0.483E-01    0.269E+01
RMM:  39    -0.125557502206E+04   -0.10559E+01   -0.17402E-01  2276   0.748E-01    0.259E+01
RMM:  40    -0.125787104647E+04   -0.22960E+01   -0.45801E-01  2296   0.119E+00    0.259E+01
RMM:  41    -0.126030969039E+04   -0.24386E+01   -0.92064E-01  2265   0.169E+00    0.278E+01
RMM:  42    -0.126204318062E+04   -0.17335E+01   -0.10006E+00  2332   0.169E+00    0.246E+01
RMM:  43    -0.126283491354E+04   -0.79173E+00   -0.84833E-01  2324   0.148E+00    0.233E+01
RMM:  44    -0.126319007779E+04   -0.35516E+00   -0.27481E-01  2530   0.823E-01    0.227E+01
RMM:  45    -0.126413231997E+04   -0.94224E+00   -0.24352E-01  2369   0.701E-01    0.241E+01
RMM:  46    -0.126572654696E+04   -0.15942E+01   -0.46974E-01  2269   0.107E+00    0.258E+01
RMM:  47    -0.126592390685E+04   -0.19736E+00   -0.88657E-02  2489   0.527E-01    0.256E+01
RMM:  48    -0.126600162210E+04   -0.77715E-01   -0.36997E-02  2700   0.237E-01    0.256E+01
RMM:  49    -0.126632386963E+04   -0.32225E+00   -0.33093E-01  2162   0.879E-01    0.256E+01
RMM:  50    -0.126546917196E+04    0.85470E+00   -0.87953E-01  2257   0.141E+00    0.257E+01
RMM:  51    -0.126371261543E+04    0.17566E+01   -0.23548E+00  2283   0.317E+00    0.279E+01
RMM:  52    -0.126322327064E+04    0.48934E+00   -0.68351E-01  2368   0.153E+00    0.291E+01
RMM:  53    -0.126499791368E+04   -0.17746E+01   -0.28996E-01  2276   0.982E-01    0.300E+01
RMM:  54    -0.126529643222E+04   -0.29852E+00   -0.82999E-02  2500   0.524E-01    0.302E+01
RMM:  55    -0.126531805347E+04   -0.21621E-01   -0.20381E-02  2628   0.212E-01    0.300E+01
RMM:  56    -0.126729058494E+04   -0.19725E+01   -0.32840E-01  2284   0.109E+00    0.346E+01
RMM:  57    -0.126609519167E+04    0.11954E+01   -0.14891E-01  2206   0.810E-01    0.330E+01
RMM:  58    -0.126524903005E+04    0.84616E+00   -0.10625E-01  2272   0.560E-01    0.311E+01
RMM:  59    -0.126536922168E+04   -0.12019E+00   -0.25689E-02  2324   0.328E-01    0.315E+01
RMM:  60    -0.126538936194E+04   -0.20140E-01   -0.11194E-02  2311   0.226E-01    0.306E+01
RMM:  61    -0.127106106446E+04   -0.56717E+01   -0.10699E+00  2337   0.188E+00    0.461E+01
RMM:  62    -0.126793119190E+04    0.31299E+01   -0.55337E-01  2240   0.158E+00    0.351E+01
RMM:  63    -0.126762780601E+04    0.30339E+00   -0.12727E-01  2266   0.784E-01    0.345E+01
RMM:  64    -0.126648592778E+04    0.11419E+01   -0.14606E-01  2231   0.678E-01    0.324E+01
RMM:  65    -0.126586239049E+04    0.62354E+00   -0.14377E-01  2269   0.709E-01    0.300E+01
RMM:  66    -0.127268198292E+04   -0.68196E+01   -0.19758E+00  2258   0.265E+00    0.491E+01
RMM:  67    -0.126734964108E+04    0.53323E+01   -0.12547E+00  2310   0.226E+00    0.311E+01
RMM:  68    -0.126861651879E+04   -0.12669E+01   -0.46690E-01  2284   0.135E+00    0.319E+01
RMM:  69    -0.126948419459E+04   -0.86768E+00   -0.31855E-01  2297   0.111E+00    0.285E+01
RMM:  70    -0.126983975252E+04   -0.35556E+00   -0.28610E-01  2224   0.104E+00    0.288E+01
RMM:  71    -0.127264960822E+04   -0.28099E+01   -0.21585E+00  2211   0.257E+00    0.349E+01
RMM:  72    -0.127186736698E+04    0.78224E+00   -0.71786E-01  2273   0.170E+00    0.302E+01
RMM:  73    -0.127173268482E+04    0.13468E+00   -0.37851E-01  2465   0.112E+00    0.230E+01
RMM:  74    -0.127188735749E+04   -0.15467E+00   -0.30988E-01  2307   0.105E+00    0.248E+01
RMM:  75    -0.127189148881E+04   -0.41313E-02   -0.64753E-02  2597   0.421E-01    0.245E+01
RMM:  76    -0.127240608732E+04   -0.51460E+00   -0.14173E+00  2249   0.230E+00    0.320E+01
RMM:  77    -0.127225291686E+04    0.15317E+00   -0.96073E-01  2315   0.191E+00    0.254E+01
RMM:  78    -0.127224398068E+04    0.89362E-02   -0.52498E-01  2227   0.146E+00    0.235E+01
RMM:  79    -0.127247473654E+04   -0.23076E+00   -0.24321E-01  2569   0.834E-01    0.250E+01
RMM:  80    -0.127278769193E+04   -0.31296E+00   -0.12308E-01  2386   0.625E-01    0.272E+01
RMM:  81    -0.127325507530E+04   -0.46738E+00   -0.48664E-01  2261   0.136E+00    0.299E+01
RMM:  82    -0.127302193741E+04    0.23314E+00   -0.15411E-01  2373   0.786E-01    0.288E+01
RMM:  83    -0.127240138864E+04    0.62055E+00   -0.14544E-01  2351   0.673E-01    0.280E+01
RMM:  84    -0.127260965488E+04   -0.20827E+00   -0.51367E-02  2324   0.419E-01    0.281E+01
RMM:  85    -0.127235394502E+04    0.25571E+00   -0.46440E-02  2333   0.415E-01    0.260E+01
RMM:  86    -0.127270823979E+04   -0.35429E+00   -0.19809E-01  2263   0.890E-01    0.277E+01
RMM:  87    -0.127262598872E+04    0.82251E-01   -0.78805E-02  2336   0.595E-01    0.271E+01
RMM:  88    -0.127269997920E+04   -0.73990E-01   -0.23746E-02  2536   0.285E-01    0.274E+01
RMM:  89    -0.127263202368E+04    0.67956E-01   -0.11957E-02  2518   0.176E-01    0.271E+01
RMM:  90    -0.127262428681E+04    0.77369E-02   -0.20731E-02  2220   0.254E-01    0.271E+01
RMM:  91    -0.127324995431E+04   -0.62567E+00   -0.34104E-01  2296   0.114E+00    0.335E+01
RMM:  92    -0.127316138659E+04    0.88568E-01   -0.99499E-02  2403   0.661E-01    0.329E+01
RMM:  93    -0.127275895999E+04    0.40243E+00   -0.11519E-01  2318   0.634E-01    0.286E+01
RMM:  94    -0.127256346749E+04    0.19549E+00   -0.92965E-02  2271   0.591E-01    0.277E+01
RMM:  95    -0.127249316495E+04    0.70303E-01   -0.35501E-02  2668   0.302E-01    0.275E+01
RMM:  96    -0.127282159773E+04   -0.32843E+00   -0.38696E-01  2225   0.119E+00    0.274E+01
RMM:  97    -0.127268289265E+04    0.13871E+00   -0.20180E-01  2318   0.928E-01    0.295E+01
RMM:  98    -0.127267199308E+04    0.10900E-01   -0.48822E-02  2382   0.481E-01    0.291E+01
RMM:  99    -0.127252736047E+04    0.14463E+00   -0.53908E-02  2339   0.423E-01    0.282E+01
RMM: 100    -0.127269844090E+04   -0.17108E+00   -0.40177E-02  2303   0.408E-01    0.277E+01
RMM: 101    -0.127555806576E+04   -0.28596E+01   -0.28404E+00  2232   0.332E+00    0.383E+01
RMM: 102    -0.127433593957E+04    0.12221E+01   -0.11765E+00  2280   0.230E+00    0.313E+01
RMM: 103    -0.127391702425E+04    0.41892E+00   -0.53140E-01  2406   0.143E+00    0.310E+01
RMM: 104    -0.127364763644E+04    0.26939E+00   -0.37967E-01  2412   0.120E+00    0.289E+01
RMM: 105    -0.127351985210E+04    0.12778E+00   -0.15598E-01  2356   0.804E-01    0.250E+01
RMM: 106    -0.127550181666E+04   -0.19820E+01   -0.22054E+00  2233   0.290E+00    0.417E+01
RMM: 107    -0.127372299961E+04    0.17788E+01   -0.71257E-01  2237   0.190E+00    0.255E+01
RMM: 108    -0.127383937568E+04   -0.11638E+00   -0.25689E-01  2367   0.104E+00    0.250E+01
RMM: 109    -0.127398879662E+04   -0.14942E+00   -0.19881E-01  2368   0.864E-01    0.240E+01
RMM: 110    -0.127372217396E+04    0.26662E+00   -0.14341E-01  2272   0.782E-01    0.217E+01
RMM: 111    -0.127437056798E+04   -0.64839E+00   -0.46959E-01  2268   0.137E+00    0.267E+01
RMM: 112    -0.127382065930E+04    0.54991E+00   -0.36114E-01  2289   0.130E+00    0.190E+01
RMM: 113    -0.127378204232E+04    0.38617E-01   -0.27608E-01  2325   0.109E+00    0.143E+01
RMM: 114    -0.127396057736E+04   -0.17854E+00   -0.13515E-01  2262   0.758E-01    0.138E+01
RMM: 115    -0.127424992212E+04   -0.28934E+00   -0.99975E-02  2524   0.572E-01    0.128E+01
RMM: 116    -0.127495748291E+04   -0.70756E+00   -0.63434E-01  2238   0.151E+00    0.199E+01
RMM: 117    -0.127525151481E+04   -0.29403E+00   -0.40264E-01  2377   0.123E+00    0.179E+01
RMM: 118    -0.127533993746E+04   -0.88423E-01   -0.28751E-01  2377   0.106E+00    0.144E+01
RMM: 119    -0.127569469249E+04   -0.35476E+00   -0.13672E-01  2348   0.720E-01    0.156E+01
RMM: 120    -0.127583825198E+04   -0.14356E+00   -0.67355E-02  2569   0.456E-01
   1 F= -.12847599E+04 E0= -.12847357E+04  d E =-.128476E+04  mag=    39.1340
 curvature:   0.00 expect dE= 0.000E+00 dE for cont linesearch  0.000E+00
 trial: gam= 0.00000 g(F)=  0.391E+00 g(S)=  0.957E-01 ort = 0.000E+00 (trialstep = 0.100E+01)
 search vector abs. value=  0.487E+00
 bond charge predicted
       N       E                     dE             d eps       ncg     rms          rms(c)
DAV:   1    -0.127590650717E+04   -0.21181E+00   -0.14921E+02  2352   0.226E+01    0.171E+01
RMM:   2    -0.130276520773E+04   -0.26859E+02   -0.27225E+01  2260   0.109E+01    0.847E+01
RMM:   3    -0.128560365381E+04    0.17162E+02   -0.15227E+01  2251   0.879E+00    0.530E+01
RMM:   4    -0.127653852930E+04    0.90651E+01   -0.42642E+00  2347   0.440E+00    0.191E+01
RMM:   5    -0.127743452759E+04   -0.89600E+00   -0.30090E+00  2382   0.327E+00    0.253E+01
RMM:   6    -0.127721114205E+04    0.22339E+00   -0.13148E+00  2444   0.233E+00    0.252E+01
RMM:   7    -0.127620500746E+04    0.10061E+01   -0.62290E-01  2406   0.157E+00    0.115E+01
RMM:   8    -0.127642569740E+04   -0.22069E+00   -0.60560E-01  2326   0.149E+00    0.130E+01
RMM:   9    -0.127658109575E+04   -0.15540E+00   -0.26982E-01  2341   0.107E+00    0.722E+00
RMM:  10    -0.127671718547E+04   -0.13609E+00   -0.15030E-01  2327   0.795E-01    0.608E+00
RMM:  11    -0.127702056061E+04   -0.30338E+00   -0.13615E-01  2377   0.694E-01    0.847E+00
RMM:  12    -0.127714420112E+04   -0.12364E+00   -0.14209E-01  2379   0.692E-01    0.515E+00
RMM:  13    -0.127747588756E+04   -0.33169E+00   -0.18985E-01  2329   0.843E-01    0.819E+00
RMM:  14    -0.127757325902E+04   -0.97371E-01   -0.54895E-02  2473   0.454E-01    0.688E+00
RMM:  15    -0.127757581051E+04   -0.25515E-02   -0.11524E-02  2619   0.192E-01    0.796E+00
RMM:  16    -0.127757902051E+04   -0.32100E-02   -0.29548E-02  2327   0.312E-01    0.907E+00
RMM:  17    -0.127756851104E+04    0.10509E-01   -0.25249E-02  2361   0.317E-01    0.910E+00
RMM:  18    -0.127758481375E+04   -0.16303E-01   -0.57228E-03  2335   0.146E-01    0.905E+00
RMM:  19    -0.127766570267E+04   -0.80889E-01   -0.19463E-02  2288   0.259E-01    0.921E+00
RMM:  20    -0.127767753270E+04   -0.11830E-01   -0.70785E-03  2344   0.167E-01    0.924E+00
RMM:  21    -0.127767976550E+04   -0.22328E-02   -0.43229E-03  2305   0.140E-01    0.100E+01
RMM:  22    -0.127768877059E+04   -0.90051E-02   -0.57212E-03  2293   0.149E-01    0.941E+00
RMM:  23    -0.127779178410E+04   -0.10301E+00   -0.32301E-02  2298   0.348E-01    0.815E+00
RMM:  24    -0.127795861427E+04   -0.16683E+00   -0.31905E-02  2462   0.324E-01    0.812E+00
RMM:  25    -0.127811027153E+04   -0.15166E+00   -0.44781E-02  2479   0.372E-01    0.734E+00
RMM:  26    -0.127815027061E+04   -0.39999E-01   -0.15542E-02  2518   0.224E-01    0.711E+00
RMM:  27    -0.127814960505E+04    0.66557E-03   -0.11867E-02  2514   0.206E-01    0.754E+00
RMM:  28    -0.127817710319E+04   -0.27498E-01   -0.56581E-03  2466   0.119E-01    0.721E+00
RMM:  29    -0.127820777954E+04   -0.30676E-01   -0.76931E-03  2382   0.154E-01    0.667E+00
RMM:  30    -0.127823931902E+04   -0.31539E-01   -0.84706E-03  2562   0.137E-01    0.614E+00
RMM:  31    -0.127826818788E+04   -0.28869E-01   -0.55348E-03  2539   0.123E-01    0.604E+00
RMM:  32    -0.127827857684E+04   -0.10389E-01   -0.31698E-03  2503   0.967E-02    0.595E+00
RMM:  33    -0.127828438023E+04   -0.58034E-02   -0.13870E-03  2466   0.630E-02    0.585E+00
RMM:  34    -0.127830918146E+04   -0.24801E-01   -0.40187E-03  2264   0.110E-01    0.537E+00
RMM:  35    -0.127839314676E+04   -0.83965E-01   -0.44579E-02  2309   0.351E-01    0.329E+00
RMM:  36    -0.127844809787E+04   -0.54951E-01   -0.48288E-02  2562   0.336E-01    0.186E+00
RMM:  37    -0.127853897711E+04   -0.90879E-01   -0.23989E-02  2702   0.223E-01    0.176E+00
RMM:  38    -0.127865140689E+04   -0.11243E+00   -0.11560E-02  2567   0.152E-01    0.155E+00
RMM:  39    -0.127875014730E+04   -0.98740E-01   -0.10021E-02  2625   0.139E-01    0.137E+00
RMM:  40    -0.127884925271E+04   -0.99105E-01   -0.76063E-03  2445   0.136E-01    0.817E-01
RMM:  41    -0.127889895574E+04   -0.49703E-01   -0.32870E-03  2603   0.829E-02    0.747E-01
RMM:  42    -0.127896998815E+04   -0.71032E-01   -0.53145E-03  2456   0.991E-02    0.626E-01
RMM:  43    -0.127901217678E+04   -0.42189E-01   -0.25793E-03  2610   0.738E-02    0.465E-01
RMM:  44    -0.127904481106E+04   -0.32634E-01   -0.15052E-03  2672   0.489E-02    0.454E-01
RMM:  45    -0.127907860269E+04   -0.33792E-01   -0.13790E-03  2565   0.488E-02    0.358E-01
RMM:  46    -0.127910897020E+04   -0.30368E-01   -0.15196E-03  2622   0.446E-02    0.330E-01
RMM:  47    -0.127912423184E+04   -0.15262E-01   -0.76535E-04  2625   0.371E-02    0.266E-01
RMM:  48    -0.127913379349E+04   -0.95617E-02   -0.49708E-04  2636   0.257E-02    0.242E-01
RMM:  49    -0.127914107168E+04   -0.72782E-02   -0.32597E-04  2578   0.230E-02    0.145E-01
RMM:  50    -0.127914638338E+04   -0.53117E-02   -0.24282E-04  2578   0.186E-02    0.111E-01
RMM:  51    -0.127915139810E+04   -0.50147E-02   -0.25793E-04  2511   0.184E-02    0.713E-02
RMM:  52    -0.127915413706E+04   -0.27390E-02   -0.15425E-04  2581   0.138E-02    0.627E-02
RMM:  53    -0.127915614618E+04   -0.20091E-02   -0.11618E-04  2478   0.119E-02    0.735E-02
RMM:  54    -0.127915653797E+04   -0.39179E-03   -0.24743E-05  2022   0.837E-03    0.517E-02
RMM:  55    -0.127915739566E+04   -0.85769E-03   -0.42463E-05  2157   0.634E-03    0.310E-02
RMM:  56    -0.127915785241E+04   -0.45676E-03   -0.20093E-05  2039   0.612E-03    0.205E-02
RMM:  57    -0.127915813402E+04   -0.28161E-03   -0.15683E-05  2006   0.445E-03    0.101E-02
RMM:  58    -0.127915818317E+04   -0.49146E-04   -0.27480E-06  1474   0.363E-03    0.941E-03
RMM:  59    -0.127915826705E+04   -0.83876E-04   -0.35529E-06  1569   0.214E-03    0.580E-03
RMM:  60    -0.127915832611E+04   -0.59060E-04   -0.17143E-06  1373   0.211E-03    0.435E-03
RMM:  61    -0.127915835528E+04   -0.29173E-04   -0.10335E-06  1289   0.150E-03    0.362E-03
RMM:  62    -0.127915838165E+04   -0.26370E-04   -0.95233E-07  1261   0.138E-03    0.286E-03
RMM:  63    -0.127915839701E+04   -0.15362E-04   -0.73382E-07  1194   0.117E-03    0.210E-03
RMM:  64    -0.127915840616E+04   -0.91498E-05   -0.49376E-07  1123   0.978E-04    0.242E-03
RMM:  65    -0.127915841972E+04   -0.13555E-04   -0.53505E-07  1142   0.884E-04    0.207E-03
RMM:  66    -0.127915843180E+04   -0.12082E-04   -0.45997E-07  1119   0.901E-04    0.104E-03
RMM:  67    -0.127915844031E+04   -0.85107E-05   -0.45653E-07  1091   0.791E-04    0.105E-03
RMM:  68    -0.127915844546E+04   -0.51559E-05   -0.33892E-07  1025   0.796E-04    0.865E-04
RMM:  69    -0.127915844993E+04   -0.44638E-05   -0.31934E-07  1015   0.653E-04    0.499E-04
RMM:  70    -0.127915845260E+04   -0.26760E-05   -0.24378E-07  1010   0.678E-04    0.579E-04
RMM:  71    -0.127915845416E+04   -0.15581E-05   -0.19469E-07   910   0.539E-04    0.405E-04
RMM:  72    -0.127915845561E+04   -0.14475E-05   -0.16677E-07   965   0.558E-04    0.296E-04
RMM:  73    -0.127915845624E+04   -0.62949E-06   -0.13205E-07   916   0.481E-04
   2 F= -.12881112E+04 E0= -.12881031E+04  d E =-.335134E+01  mag=    40.9998
 trial-energy change:   -3.351335  1 .order   -0.052932   -0.486603    0.380738
 step:   0.9812(harm=  0.5610)  dis= 0.03784  next Energy= -1288.114794 (dE=-0.335E+01)
 bond charge predicted
       N       E                     dE             d eps       ncg     rms          rms(c)
DAV:   1    -0.127916581098E+04   -0.73554E-02   -0.53351E-02  2316   0.430E-01    0.120E-01
RMM:   2    -0.127916588518E+04   -0.74204E-04   -0.12596E-03  2360   0.767E-02    0.219E-01
RMM:   3    -0.127916611258E+04   -0.22739E-03   -0.43348E-04  2541   0.422E-02    0.453E-01
RMM:   4    -0.127916588059E+04    0.23199E-03   -0.30899E-04  2403   0.354E-02    0.248E-01
RMM:   5    -0.127916585768E+04    0.22912E-04   -0.15480E-04  2297   0.284E-02    0.731E-02
RMM:   6    -0.127916588637E+04   -0.28689E-04   -0.50716E-05  2064   0.140E-02    0.874E-02
RMM:   7    -0.127916587808E+04    0.82886E-05   -0.26505E-05  1896   0.107E-02    0.434E-02
RMM:   8    -0.127916588528E+04   -0.72039E-05   -0.17315E-05  1751   0.852E-03    0.441E-02
RMM:   9    -0.127916588262E+04    0.26661E-05   -0.66220E-06  1561   0.608E-03    0.242E-02
RMM:  10    -0.127916588578E+04   -0.31601E-05   -0.56150E-06  1536   0.541E-03    0.273E-02
RMM:  11    -0.127916588466E+04    0.11199E-05   -0.24636E-06  1453   0.390E-03    0.110E-02
RMM:  12    -0.127916588591E+04   -0.12514E-05   -0.96962E-07  1310   0.239E-03    0.111E-02
RMM:  13    -0.127916588569E+04    0.22173E-06   -0.48174E-07  1244   0.182E-03
   3 F= -.12881183E+04 E0= -.12881102E+04  d E =-.335838E+01  mag=    40.9999
 curvature:  -0.02 expect dE=-0.411E-01 dE for cont linesearch -0.654E-02
 ZBRENT: interpolating
 opt :   0.5586  next Energy= -1288.196105 (dE=-0.344E+01)
 bond charge predicted
       N       E                     dE             d eps       ncg     rms          rms(c)
DAV:   1    -0.127922904085E+04   -0.63155E-01   -0.27185E+01  2220   0.974E+00    0.276E+00
RMM:   2    -0.127931264576E+04   -0.83605E-01   -0.68595E-01  2345   0.178E+00    0.441E+00
RMM:   3    -0.127938197673E+04   -0.69331E-01   -0.23696E-01  2539   0.101E+00    0.957E+00
RMM:   4    -0.127931793600E+04    0.64041E-01   -0.12935E-01  2596   0.699E-01    0.503E+00
RMM:   5    -0.127927300893E+04    0.44927E-01   -0.71043E-02  2396   0.580E-01    0.181E+00
RMM:   6    -0.127928216309E+04   -0.91542E-02   -0.28573E-02  2488   0.331E-01    0.230E+00
RMM:   7    -0.127927408864E+04    0.80744E-02   -0.13288E-02  2496   0.238E-01    0.131E+00
RMM:   8    -0.127927335891E+04    0.72974E-03   -0.75531E-03  2523   0.170E-01    0.914E-01
RMM:   9    -0.127927371480E+04   -0.35589E-03   -0.45703E-03  2560   0.135E-01    0.760E-01
RMM:  10    -0.127927338642E+04    0.32838E-03   -0.31555E-03  2448   0.118E-01    0.594E-01
RMM:  11    -0.127927342626E+04   -0.39838E-04   -0.18967E-03  2499   0.871E-02    0.541E-01
RMM:  12    -0.127927301862E+04    0.40764E-03   -0.94071E-04  2376   0.629E-02    0.288E-01
RMM:  13    -0.127927326009E+04   -0.24147E-03   -0.50682E-04  2440   0.457E-02    0.256E-01
RMM:  14    -0.127927317796E+04    0.82131E-04   -0.28943E-04  2330   0.358E-02    0.160E-01
RMM:  15    -0.127927320210E+04   -0.24139E-04   -0.11251E-04  2194   0.211E-02    0.118E-01
RMM:  16    -0.127927322921E+04   -0.27117E-04   -0.72508E-05  2042   0.174E-02    0.149E-01
RMM:  17    -0.127927325435E+04   -0.25138E-04   -0.43786E-05  1994   0.135E-02    0.106E-01
RMM:  18    -0.127927327121E+04   -0.16857E-04   -0.28535E-05  1842   0.109E-02    0.546E-02
RMM:  19    -0.127927331410E+04   -0.42893E-04   -0.16678E-05  1711   0.841E-03    0.494E-02
RMM:  20    -0.127927332801E+04   -0.13913E-04   -0.10929E-05  1569   0.735E-03    0.347E-02
RMM:  21    -0.127927334997E+04   -0.21955E-04   -0.34626E-06  1483   0.430E-03    0.176E-02
RMM:  22    -0.127927337907E+04   -0.29106E-04   -0.32929E-06  1469   0.379E-03    0.252E-02
RMM:  23    -0.127927339868E+04   -0.19610E-04   -0.26792E-06  1458   0.365E-03    0.173E-02
RMM:  24    -0.127927342810E+04   -0.29410E-04   -0.17054E-06  1421   0.270E-03    0.995E-03
RMM:  25    -0.127927344428E+04   -0.16185E-04   -0.10382E-06  1323   0.220E-03    0.117E-02
RMM:  26    -0.127927345217E+04   -0.78900E-05   -0.62817E-07  1277   0.173E-03    0.604E-03
RMM:  27    -0.127927346457E+04   -0.12402E-04   -0.40737E-07  1197   0.119E-03    0.387E-03
RMM:  28    -0.127927347938E+04   -0.14810E-04   -0.43624E-07  1200   0.118E-03    0.547E-03
RMM:  29    -0.127927349079E+04   -0.11408E-04   -0.42034E-07  1169   0.126E-03    0.287E-03
RMM:  30    -0.127927350552E+04   -0.14725E-04   -0.39122E-07  1181   0.914E-04    0.175E-03
RMM:  31    -0.127927351511E+04   -0.95924E-05   -0.29690E-07  1102   0.830E-04    0.154E-03
RMM:  32    -0.127927352425E+04   -0.91392E-05   -0.28900E-07  1103   0.682E-04    0.124E-03
RMM:  33    -0.127927353640E+04   -0.12152E-04   -0.35613E-07  1144   0.755E-04    0.134E-03
RMM:  34    -0.127927354250E+04   -0.61055E-05   -0.30601E-07  1098   0.738E-04    0.709E-04
RMM:  35    -0.127927354847E+04   -0.59643E-05   -0.31685E-07  1057   0.672E-04    0.550E-04
RMM:  36    -0.127927355389E+04   -0.54215E-05   -0.33539E-07  1096   0.721E-04    0.418E-04
RMM:  37    -0.127927355632E+04   -0.24248E-05   -0.28489E-07  1075   0.679E-04    0.369E-04
RMM:  38    -0.127927355746E+04   -0.11431E-05   -0.21286E-07   970   0.598E-04    0.423E-04
RMM:  39    -0.127927355804E+04   -0.58328E-06   -0.15024E-07   891   0.522E-04
   4 F= -.12882152E+04 E0= -.12882072E+04  d E =-.345527E+01  mag=    41.0000
 curvature:  -0.28 expect dE=-0.164E+00 dE for cont linesearch -0.467E-02
 ZBRENT: interpolating
 opt :   0.4428  next Energy= -1288.221215 (dE=-0.346E+01)
 bond charge predicted
       N       E                     dE             d eps       ncg     rms          rms(c)
DAV:   1    -0.127928043187E+04   -0.68744E-02   -0.20326E+00  2316   0.265E+00    0.758E-01
RMM:   2    -0.127928671550E+04   -0.62836E-02   -0.49434E-02  2359   0.477E-01    0.146E+00
RMM:   3    -0.127929324225E+04   -0.65268E-02   -0.17414E-02  2535   0.273E-01    0.311E+00
RMM:   4    -0.127928568023E+04    0.75620E-02   -0.12011E-02  2510   0.221E-01    0.165E+00
RMM:   5    -0.127928321166E+04    0.24686E-02   -0.64715E-03  2406   0.181E-01    0.502E-01
RMM:   6    -0.127928392817E+04   -0.71651E-03   -0.20872E-03  2494   0.914E-02    0.608E-01
RMM:   7    -0.127928336567E+04    0.56250E-03   -0.10297E-03  2519   0.657E-02    0.288E-01
RMM:   8    -0.127928350008E+04   -0.13442E-03   -0.65532E-04  2472   0.501E-02    0.262E-01
RMM:   9    -0.127928346818E+04    0.31902E-04   -0.33538E-04  2541   0.371E-02    0.189E-01
RMM:  10    -0.127928346612E+04    0.20590E-05   -0.20318E-04  2359   0.298E-02    0.155E-01
RMM:  11    -0.127928345597E+04    0.10150E-04   -0.10885E-04  2255   0.216E-02    0.124E-01
RMM:  12    -0.127928343993E+04    0.16040E-04   -0.52373E-05  1990   0.150E-02    0.611E-02
RMM:  13    -0.127928346262E+04   -0.22686E-04   -0.25887E-05  1825   0.105E-02    0.578E-02
RMM:  14    -0.127928346119E+04    0.14305E-05   -0.12666E-05  1572   0.802E-03    0.304E-02
RMM:  15    -0.127928346582E+04   -0.46334E-05   -0.56877E-06  1527   0.534E-03    0.255E-02
RMM:  16    -0.127928346938E+04   -0.35616E-05   -0.37341E-06  1492   0.444E-03    0.235E-02
RMM:  17    -0.127928347364E+04   -0.42598E-05   -0.26004E-06  1454   0.357E-03    0.229E-02
RMM:  18    -0.127928347704E+04   -0.34011E-05   -0.14648E-06  1380   0.286E-03    0.113E-02
RMM:  19    -0.127928348100E+04   -0.39602E-05   -0.95128E-07  1320   0.230E-03    0.112E-02
RMM:  20    -0.127928348372E+04   -0.27151E-05   -0.64108E-07  1270   0.195E-03    0.881E-03
RMM:  21    -0.127928348622E+04   -0.25011E-05   -0.33435E-07  1250   0.131E-03    0.454E-03
RMM:  22    -0.127928348988E+04   -0.36597E-05   -0.23023E-07  1196   0.103E-03    0.465E-03
RMM:  23    -0.127928349253E+04   -0.26457E-05   -0.20346E-07  1109   0.984E-04    0.381E-03
RMM:  24    -0.127928349640E+04   -0.38726E-05   -0.15331E-07  1128   0.762E-04    0.227E-03
RMM:  25    -0.127928349846E+04   -0.20626E-05   -0.11500E-07   993   0.678E-04    0.264E-03
RMM:  26    -0.127928349969E+04   -0.12262E-05   -0.81009E-08   867   0.601E-04    0.133E-03
RMM:  27    -0.127928350130E+04   -0.16127E-05   -0.57784E-08   892   0.441E-04    0.887E-04
RMM:  28    -0.127928350271E+04   -0.14073E-05   -0.52241E-08   879   0.441E-04    0.141E-03
RMM:  29    -0.127928350423E+04   -0.15211E-05   -0.52359E-08   879   0.428E-04    0.886E-04
RMM:  30    -0.127928350567E+04   -0.14402E-05   -0.46099E-08   836   0.373E-04    0.424E-04
RMM:  31    -0.127928350685E+04   -0.11785E-05   -0.40489E-08   784   0.352E-04    0.301E-04
RMM:  32    -0.127928350825E+04   -0.14066E-05   -0.56084E-08   876   0.363E-04    0.239E-04
RMM:  33    -0.127928350937E+04   -0.11165E-05   -0.57365E-08   892   0.382E-04    0.225E-04
RMM:  34    -0.127928350991E+04   -0.53843E-06   -0.43252E-08   790   0.355E-04
   5 F= -.12882214E+04 E0= -.12882134E+04  d E =-.346150E+01  mag=    41.0000
 curvature:  -0.36 expect dE=-0.147E+00 dE for cont linesearch -0.198E-03
 trial: gam= 0.87021 g(F)=  0.392E+00 g(S)=  0.150E-01 ort =-0.163E-01 (trialstep = 0.579E+00)
 search vector abs. value=  0.747E+00
 bond charge predicted
       N       E                     dE             d eps       ncg     rms          rms(c)
DAV:   1    -0.127911713141E+04    0.16638E+00   -0.87555E+01  2184   0.147E+01    0.392E+00
RMM:   2    -0.127936149207E+04   -0.24436E+00   -0.18702E+00  2376   0.271E+00    0.494E+00
RMM:   3    -0.127950188955E+04   -0.14040E+00   -0.56425E-01  2615   0.138E+00    0.666E+00
RMM:   4    -0.127938345938E+04    0.11843E+00   -0.16537E-01  2620   0.763E-01    0.268E+00
RMM:   5    -0.127938805786E+04   -0.45985E-02   -0.60711E-02  2552   0.434E-01    0.253E+00
RMM:   6    -0.127942884083E+04   -0.40783E-01   -0.42986E-02  2496   0.348E-01    0.720E+00
RMM:   7    -0.127936626684E+04    0.62574E-01   -0.28721E-02  2456   0.350E-01    0.152E+00
RMM:   8    -0.127938236204E+04   -0.16095E-01   -0.21449E-02  2340   0.310E-01    0.125E+00
RMM:   9    -0.127938667155E+04   -0.43095E-02   -0.79250E-03  2466   0.178E-01    0.132E+00
RMM:  10    -0.127938702264E+04   -0.35109E-03   -0.95944E-03  2430   0.192E-01    0.132E+00
RMM:  11    -0.127938476544E+04    0.22572E-02   -0.50677E-03  2467   0.142E-01    0.609E-01
RMM:  12    -0.127938493531E+04   -0.16987E-03   -0.32944E-03  2343   0.116E-01    0.672E-01
RMM:  13    -0.127938483689E+04    0.98419E-04   -0.13156E-03  2406   0.772E-02    0.433E-01
RMM:  14    -0.127938472281E+04    0.11407E-03   -0.65850E-04  2389   0.531E-02    0.188E-01
RMM:  15    -0.127938506148E+04   -0.33867E-03   -0.29545E-04  2363   0.349E-02    0.190E-01
RMM:  16    -0.127938516334E+04   -0.10186E-03   -0.17616E-04  2289   0.264E-02    0.131E-01
RMM:  17    -0.127938528033E+04   -0.11699E-03   -0.76288E-05  2175   0.173E-02    0.100E-01
RMM:  18    -0.127938536515E+04   -0.84813E-04   -0.45177E-05  1997   0.128E-02    0.676E-02
RMM:  19    -0.127938545958E+04   -0.94435E-04   -0.20557E-05  1768   0.902E-03    0.370E-02
RMM:  20    -0.127938556869E+04   -0.10911E-03   -0.15339E-05  1751   0.725E-03    0.486E-02
RMM:  21    -0.127938565299E+04   -0.84293E-04   -0.11426E-05  1637   0.678E-03    0.259E-02
RMM:  22    -0.127938580564E+04   -0.15266E-03   -0.76051E-06  1733   0.453E-03    0.193E-02
RMM:  23    -0.127938587809E+04   -0.72445E-04   -0.47195E-06  1541   0.413E-03    0.254E-02
RMM:  24    -0.127938593806E+04   -0.59973E-04   -0.29967E-06  1492   0.336E-03    0.134E-02
RMM:  25    -0.127938602073E+04   -0.82672E-04   -0.23698E-06  1447   0.233E-03    0.884E-03
RMM:  26    -0.127938610265E+04   -0.81915E-04   -0.27221E-06  1497   0.274E-03    0.138E-02
RMM:  27    -0.127938618367E+04   -0.81024E-04   -0.28939E-06  1514   0.264E-03    0.635E-03
RMM:  28    -0.127938626749E+04   -0.83821E-04   -0.27631E-06  1513   0.202E-03    0.479E-03
RMM:  29    -0.127938630773E+04   -0.40235E-04   -0.14197E-06  1303   0.185E-03    0.724E-03
RMM:  30    -0.127938633841E+04   -0.30686E-04   -0.11934E-06  1268   0.164E-03    0.501E-03
RMM:  31    -0.127938640123E+04   -0.62814E-04   -0.22346E-06  1421   0.161E-03    0.272E-03
RMM:  32    -0.127938643527E+04   -0.34041E-04   -0.13257E-06  1253   0.149E-03    0.193E-03
RMM:  33    -0.127938646635E+04   -0.31077E-04   -0.14613E-06  1268   0.134E-03    0.142E-03
RMM:  34    -0.127938648950E+04   -0.23150E-04   -0.12920E-06  1262   0.138E-03    0.115E-03
RMM:  35    -0.127938650566E+04   -0.16163E-04   -0.11919E-06  1221   0.122E-03    0.788E-04
RMM:  36    -0.127938651994E+04   -0.14282E-04   -0.12148E-06  1270   0.127E-03    0.109E-03
RMM:  37    -0.127938652497E+04   -0.50304E-05   -0.82534E-07  1124   0.111E-03    0.509E-04
RMM:  38    -0.127938652807E+04   -0.30950E-05   -0.59901E-07  1105   0.953E-04    0.376E-04
RMM:  39    -0.127938652992E+04   -0.18507E-05   -0.44129E-07  1061   0.842E-04    0.244E-04
RMM:  40    -0.127938653073E+04   -0.80880E-06   -0.29807E-07   973   0.712E-04
   6 F= -.12883383E+04 E0= -.12883307E+04  d E =-.116878E+00  mag=    41.0000
 trial-energy change:   -0.116878  1 .order   -0.114478   -0.227367   -0.001589
 step:   0.5825(harm=  0.5828)  dis= 0.03247  next Energy= -1288.338286 (dE=-0.117E+00)
 bond charge predicted
       N       E                     dE             d eps       ncg     rms          rms(c)
DAV:   1    -0.127938643896E+04    0.90953E-04   -0.38118E-03  2328   0.974E-02    0.254E-02
RMM:   2    -0.127938643434E+04    0.46294E-05   -0.55317E-05  2337   0.160E-02    0.215E-02
RMM:   3    -0.127938645091E+04   -0.16574E-04   -0.16192E-05  1848   0.823E-03    0.496E-02
RMM:   4    -0.127938644586E+04    0.50480E-05   -0.62900E-06  1519   0.569E-03    0.466E-02
RMM:   5    -0.127938644265E+04    0.32134E-05   -0.32273E-06  1457   0.418E-03    0.112E-02
RMM:   6    -0.127938644800E+04   -0.53509E-05   -0.17241E-06  1376   0.310E-03    0.118E-02
RMM:   7    -0.127938644822E+04   -0.22187E-06   -0.10420E-06  1294   0.252E-03
   7 F= -.12883383E+04 E0= -.12883307E+04  d E =-.116882E+00  mag=    41.0000
 curvature:  -0.55 expect dE=-0.144E+00 dE for cont linesearch -0.488E-08
 trial: gam= 0.66165 g(F)=  0.251E+00 g(S)=  0.885E-02 ort =-0.813E-04 (trialstep = 0.579E+00)
 search vector abs. value=  0.587E+00
 bond charge predicted
       N       E                     dE             d eps       ncg     rms          rms(c)
DAV:   1    -0.127922465384E+04    0.16179E+00   -0.65282E+01  2160   0.123E+01    0.309E+00
RMM:   2    -0.127938601655E+04   -0.16136E+00   -0.13360E+00  2454   0.221E+00    0.274E+00
RMM:   3    -0.127948773821E+04   -0.10172E+00   -0.30341E-01  2651   0.991E-01    0.597E+00
RMM:   4    -0.127945864890E+04    0.29089E-01   -0.10635E-01  2587   0.599E-01    0.376E+00
RMM:   5    -0.127941963994E+04    0.39009E-01   -0.57108E-02  2439   0.470E-01    0.155E+00
RMM:   6    -0.127943031455E+04   -0.10675E-01   -0.28183E-02  2465   0.319E-01    0.207E+00
RMM:   7    -0.127942626750E+04    0.40470E-02   -0.17115E-02  2522   0.267E-01    0.138E+00
RMM:   8    -0.127942572028E+04    0.54722E-03   -0.12447E-02  2434   0.221E-01    0.991E-01
RMM:   9    -0.127942567472E+04    0.45558E-04   -0.69594E-03  2405   0.170E-01    0.854E-01
RMM:  10    -0.127942477520E+04    0.89952E-03   -0.31347E-03  2434   0.116E-01    0.740E-01
RMM:  11    -0.127942429795E+04    0.47725E-03   -0.99052E-04  2451   0.664E-02    0.431E-01
RMM:  12    -0.127942412807E+04    0.16988E-03   -0.49622E-04  2455   0.438E-02    0.186E-01
RMM:  13    -0.127942435047E+04   -0.22240E-03   -0.25516E-04  2444   0.329E-02    0.230E-01
RMM:  14    -0.127942433812E+04    0.12352E-04   -0.14578E-04  2275   0.252E-02    0.163E-01
RMM:  15    -0.127942439717E+04   -0.59051E-04   -0.64556E-05  2182   0.154E-02    0.796E-02
RMM:  16    -0.127942446608E+04   -0.68913E-04   -0.47699E-05  2007   0.140E-02    0.667E-02
RMM:  17    -0.127942454008E+04   -0.73998E-04   -0.20707E-05  1809   0.932E-03    0.755E-02
RMM:  18    -0.127942461945E+04   -0.79370E-04   -0.12788E-05  1728   0.706E-03    0.319E-02
RMM:  19    -0.127942469134E+04   -0.71892E-04   -0.91845E-06  1620   0.626E-03    0.472E-02
RMM:  20    -0.127942473202E+04   -0.40678E-04   -0.53984E-06  1538   0.501E-03    0.190E-02
RMM:  21    -0.127942479929E+04   -0.67272E-04   -0.30227E-06  1502   0.323E-03    0.143E-02
RMM:  22    -0.127942486528E+04   -0.65985E-04   -0.30223E-06  1508   0.320E-03    0.171E-02
RMM:  23    -0.127942490166E+04   -0.36383E-04   -0.20809E-06  1435   0.286E-03    0.102E-02
RMM:  24    -0.127942496442E+04   -0.62755E-04   -0.21218E-06  1421   0.224E-03    0.497E-03
RMM:  25    -0.127942500091E+04   -0.36490E-04   -0.13457E-06  1290   0.203E-03    0.730E-03
RMM:  26    -0.127942502550E+04   -0.24589E-04   -0.10277E-06  1224   0.178E-03    0.492E-03
RMM:  27    -0.127942505975E+04   -0.34255E-04   -0.10735E-06  1259   0.154E-03    0.305E-03
RMM:  28    -0.127942510820E+04   -0.48444E-04   -0.16524E-06  1322   0.157E-03    0.321E-03
RMM:  29    -0.127942513057E+04   -0.22375E-04   -0.10342E-06  1216   0.156E-03    0.388E-03
RMM:  30    -0.127942515014E+04   -0.19569E-04   -0.87575E-07  1190   0.126E-03    0.179E-03
RMM:  31    -0.127942517266E+04   -0.22520E-04   -0.88192E-07  1209   0.119E-03    0.150E-03
RMM:  32    -0.127942518935E+04   -0.16686E-04   -0.78504E-07  1170   0.109E-03    0.100E-03
RMM:  33    -0.127942520733E+04   -0.17988E-04   -0.93849E-07  1202   0.109E-03    0.800E-04
RMM:  34    -0.127942522050E+04   -0.13167E-04   -0.87748E-07  1190   0.110E-03    0.637E-04
RMM:  35    -0.127942522674E+04   -0.62396E-05   -0.65141E-07  1110   0.991E-04    0.551E-04
RMM:  36    -0.127942523224E+04   -0.55034E-05   -0.56445E-07  1109   0.890E-04    0.407E-04
RMM:  37    -0.127942523607E+04   -0.38270E-05   -0.46404E-07  1102   0.849E-04    0.356E-04
RMM:  38    -0.127942523786E+04   -0.17950E-05   -0.35391E-07  1023   0.745E-04    0.176E-04
RMM:  39    -0.127942523878E+04   -0.91123E-06   -0.25546E-07   962   0.656E-04
   8 F= -.12883799E+04 E0= -.12883721E+04  d E =-.416031E-01  mag=    41.0000
 trial-energy change:   -0.041603  1 .order   -0.039221   -0.150778    0.072335
 step:   0.3995(harm=  0.3916)  dis= 0.02532  next Energy= -1288.391047 (dE=-0.528E-01)
 bond charge predicted
       N       E                     dE             d eps       ncg     rms          rms(c)
DAV:   1    -0.127942154785E+04    0.36900E-02   -0.62540E+00  2184   0.379E+00    0.954E-01
RMM:   2    -0.127943198344E+04   -0.10436E-01   -0.95441E-02  2489   0.631E-01    0.702E-01
RMM:   3    -0.127944459621E+04   -0.12613E-01   -0.22382E-02  2653   0.278E-01    0.184E+00
RMM:   4    -0.127943782721E+04    0.67690E-02   -0.80268E-03  2609   0.173E-01    0.147E+00
RMM:   5    -0.127943606534E+04    0.17619E-02   -0.39890E-03  2453   0.132E-01    0.524E-01
RMM:   6    -0.127943726730E+04   -0.12020E-02   -0.21077E-03  2429   0.989E-02    0.403E-01
RMM:   7    -0.127943743945E+04   -0.17215E-03   -0.15347E-03  2424   0.813E-02    0.458E-01
RMM:   8    -0.127943730976E+04    0.12968E-03   -0.10152E-03  2418   0.640E-02    0.290E-01
RMM:   9    -0.127943724750E+04    0.62262E-04   -0.45679E-04  2384   0.434E-02    0.203E-01
RMM:  10    -0.127943717130E+04    0.76199E-04   -0.17564E-04  2286   0.267E-02    0.966E-02
RMM:  11    -0.127943721386E+04   -0.42561E-04   -0.67927E-05  2115   0.163E-02    0.102E-01
RMM:  12    -0.127943720030E+04    0.13565E-04   -0.28738E-05  1863   0.112E-02    0.499E-02
RMM:  13    -0.127943721177E+04   -0.11470E-04   -0.14538E-05  1634   0.755E-03    0.394E-02
RMM:  14    -0.127943722064E+04   -0.88711E-05   -0.62341E-06  1538   0.570E-03    0.181E-02
RMM:  15    -0.127943722803E+04   -0.73879E-05   -0.36374E-06  1487   0.404E-03    0.234E-02
RMM:  16    -0.127943723476E+04   -0.67297E-05   -0.19557E-06  1415   0.324E-03    0.827E-03
RMM:  17    -0.127943724571E+04   -0.10955E-04   -0.12555E-06  1339   0.232E-03    0.165E-02
RMM:  18    -0.127943725079E+04   -0.50762E-05   -0.10502E-06  1345   0.238E-03    0.131E-02
RMM:  19    -0.127943725570E+04   -0.49108E-05   -0.59327E-07  1261   0.171E-03    0.487E-03
RMM:  20    -0.127943726147E+04   -0.57714E-05   -0.37672E-07  1206   0.128E-03    0.737E-03
RMM:  21    -0.127943726599E+04   -0.45217E-05   -0.30058E-07  1182   0.110E-03    0.588E-03
RMM:  22    -0.127943726979E+04   -0.37965E-05   -0.25381E-07  1131   0.104E-03    0.284E-03
RMM:  23    -0.127943727775E+04   -0.79573E-05   -0.29832E-07  1186   0.880E-04    0.409E-03
RMM:  24    -0.127943728185E+04   -0.40986E-05   -0.22431E-07  1136   0.866E-04    0.247E-03
RMM:  25    -0.127943728408E+04   -0.22322E-05   -0.15558E-07  1000   0.661E-04    0.161E-03
RMM:  26    -0.127943728642E+04   -0.23378E-05   -0.12030E-07  1001   0.585E-04    0.156E-03
RMM:  27    -0.127943728891E+04   -0.24987E-05   -0.11638E-07  1006   0.543E-04    0.113E-03
RMM:  28    -0.127943729229E+04   -0.33801E-05   -0.13122E-07  1076   0.538E-04    0.113E-03
RMM:  29    -0.127943729367E+04   -0.13722E-05   -0.96207E-08   944   0.519E-04    0.140E-03
RMM:  30    -0.127943729508E+04   -0.14173E-05   -0.80161E-08   844   0.434E-04    0.721E-04
RMM:  31    -0.127943729660E+04   -0.15157E-05   -0.83559E-08   956   0.433E-04    0.309E-04
RMM:  32    -0.127943729750E+04   -0.90093E-06   -0.66820E-08   872   0.400E-04
   9 F= -.12883911E+04 E0= -.12883833E+04  d E =-.527847E-01  mag=    41.0000
 curvature:  -0.44 expect dE=-0.129E+00 dE for cont linesearch -0.118E-07
 trial: gam= 1.06672 g(F)=  0.285E+00 g(S)=  0.828E-02 ort =-0.126E-03 (trialstep = 0.332E+00)
 search vector abs. value=  0.961E+00
 bond charge predicted
       N       E                     dE             d eps       ncg     rms          rms(c)
DAV:   1    -0.127933934229E+04    0.97954E-01   -0.32773E+01  2184   0.924E+00    0.217E+00
RMM:   2    -0.127941292853E+04   -0.73586E-01   -0.69588E-01  2512   0.155E+00    0.222E+00
RMM:   3    -0.127954896029E+04   -0.13603E+00   -0.15247E-01  2642   0.715E-01    0.101E+01
RMM:   4    -0.127939988225E+04    0.14908E+00   -0.69764E-02  2529   0.540E-01    0.208E+00
RMM:   5    -0.127942795934E+04   -0.28077E-01   -0.37426E-02  2386   0.438E-01    0.157E+00
RMM:   6    -0.127943547087E+04   -0.75115E-02   -0.21707E-02  2431   0.294E-01    0.183E+00
RMM:   7    -0.127943153867E+04    0.39322E-02   -0.18507E-02  2477   0.274E-01    0.139E+00
RMM:   8    -0.127943124001E+04    0.29866E-03   -0.12255E-02  2400   0.218E-01    0.111E+00
RMM:   9    -0.127942822263E+04    0.30174E-02   -0.50980E-03  2376   0.152E-01    0.548E-01
RMM:  10    -0.127942801777E+04    0.20486E-03   -0.16580E-03  2429   0.816E-02    0.377E-01
RMM:  11    -0.127942790387E+04    0.11391E-03   -0.40614E-04  2465   0.427E-02    0.210E-01
RMM:  12    -0.127942799951E+04   -0.95642E-04   -0.21427E-04  2387   0.289E-02    0.172E-01
RMM:  13    -0.127942802956E+04   -0.30049E-04   -0.10999E-04  2258   0.217E-02    0.665E-02
RMM:  14    -0.127942812414E+04   -0.94584E-04   -0.35273E-05  2062   0.117E-02    0.460E-02
RMM:  15    -0.127942816960E+04   -0.45459E-04   -0.23620E-05  1774   0.944E-03    0.537E-02
RMM:  16    -0.127942821331E+04   -0.43708E-04   -0.13964E-05  1636   0.786E-03    0.280E-02
RMM:  17    -0.127942827343E+04   -0.60121E-04   -0.87397E-06  1612   0.588E-03    0.247E-02
RMM:  18    -0.127942831969E+04   -0.46260E-04   -0.72877E-06  1569   0.527E-03    0.314E-02
RMM:  19    -0.127942835516E+04   -0.35466E-04   -0.40805E-06  1508   0.441E-03    0.131E-02
RMM:  20    -0.127942838059E+04   -0.25427E-04   -0.21302E-06  1440   0.293E-03    0.133E-02
RMM:  21    -0.127942841369E+04   -0.33108E-04   -0.14236E-06  1363   0.243E-03    0.909E-03
RMM:  22    -0.127942845738E+04   -0.43684E-04   -0.15234E-06  1358   0.191E-03    0.809E-03
RMM:  23    -0.127942847823E+04   -0.20854E-04   -0.10624E-06  1288   0.198E-03    0.665E-03
RMM:  24    -0.127942850305E+04   -0.24819E-04   -0.90336E-07  1231   0.146E-03    0.361E-03
RMM:  25    -0.127942852407E+04   -0.21021E-04   -0.70655E-07  1213   0.133E-03    0.274E-03
RMM:  26    -0.127942854520E+04   -0.21123E-04   -0.73043E-07  1188   0.115E-03    0.332E-03
RMM:  27    -0.127942855876E+04   -0.13562E-04   -0.59749E-07  1132   0.121E-03    0.264E-03
RMM:  28    -0.127942858322E+04   -0.24464E-04   -0.94943E-07  1234   0.106E-03    0.202E-03
RMM:  29    -0.127942859762E+04   -0.14400E-04   -0.66228E-07  1166   0.108E-03    0.168E-03
RMM:  30    -0.127942860448E+04   -0.68596E-05   -0.46601E-07  1073   0.847E-04    0.184E-03
RMM:  31    -0.127942861021E+04   -0.57263E-05   -0.36451E-07  1046   0.831E-04    0.119E-03
RMM:  32    -0.127942862212E+04   -0.11915E-04   -0.59996E-07  1170   0.785E-04    0.698E-04
RMM:  33    -0.127942862835E+04   -0.62325E-05   -0.45091E-07  1122   0.895E-04    0.577E-04
RMM:  34    -0.127942863082E+04   -0.24665E-05   -0.34911E-07   994   0.667E-04    0.379E-04
RMM:  35    -0.127942863274E+04   -0.19196E-05   -0.26259E-07  1004   0.684E-04    0.343E-04
RMM:  36    -0.127942863410E+04   -0.13590E-05   -0.21454E-07   942   0.549E-04    0.254E-04
RMM:  37    -0.127942863493E+04   -0.83140E-06   -0.16032E-07   924   0.556E-04
  10 F= -.12883806E+04 E0= -.12883728E+04  d E =0.104491E-01  mag=    41.0000
 trial-energy change:    0.010449  1 .order    0.010975   -0.097303    0.119253
 step:   0.1504(harm=  0.1492)  dis= 0.01208  next Energy= -1288.413154 (dE=-0.221E-01)
 bond charge predicted
       N       E                     dE             d eps       ncg     rms          rms(c)
DAV:   1    -0.127943658096E+04   -0.79469E-02   -0.97937E+00  2172   0.503E+00    0.120E+00
RMM:   2    -0.127945505363E+04   -0.18473E-01   -0.18237E-01  2532   0.825E-01    0.134E+00
RMM:   3    -0.127948557383E+04   -0.30520E-01   -0.45958E-02  2649   0.396E-01    0.287E+00
RMM:   4    -0.127945847053E+04    0.27103E-01   -0.18383E-02  2558   0.265E-01    0.845E-01
RMM:   5    -0.127946244329E+04   -0.39728E-02   -0.82223E-03  2471   0.176E-01    0.123E+00
RMM:   6    -0.127946054715E+04    0.18961E-02   -0.53873E-03  2487   0.147E-01    0.584E-01
RMM:   7    -0.127946074608E+04   -0.19893E-03   -0.47574E-03  2391   0.133E-01    0.679E-01
RMM:   8    -0.127946041385E+04    0.33223E-03   -0.21880E-03  2401   0.936E-02    0.463E-01
RMM:   9    -0.127945991915E+04    0.49470E-03   -0.97105E-04  2373   0.638E-02    0.265E-01
RMM:  10    -0.127945994330E+04   -0.24152E-04   -0.33287E-04  2412   0.346E-02    0.174E-01
RMM:  11    -0.127945994332E+04   -0.23458E-07   -0.17408E-04  2293   0.273E-02    0.151E-01
RMM:  12    -0.127945993781E+04    0.55182E-05   -0.47058E-05  2082   0.142E-02    0.113E-01
RMM:  13    -0.127945994515E+04   -0.73451E-05   -0.24053E-05  1864   0.954E-03    0.583E-02
RMM:  14    -0.127945997359E+04   -0.28439E-04   -0.18675E-05  1763   0.895E-03    0.413E-02
RMM:  15    -0.127946000200E+04   -0.28413E-04   -0.81458E-06  1596   0.599E-03    0.439E-02
RMM:  16    -0.127946001062E+04   -0.86176E-05   -0.42974E-06  1504   0.478E-03    0.208E-02
RMM:  17    -0.127946003770E+04   -0.27082E-04   -0.21597E-06  1453   0.313E-03    0.126E-02
RMM:  18    -0.127946005862E+04   -0.20912E-04   -0.18840E-06  1436   0.296E-03    0.206E-02
RMM:  19    -0.127946006964E+04   -0.11025E-04   -0.12249E-06  1368   0.244E-03    0.714E-03
RMM:  20    -0.127946008768E+04   -0.18036E-04   -0.85588E-07  1300   0.177E-03    0.132E-02
RMM:  21    -0.127946009513E+04   -0.74529E-05   -0.56642E-07  1222   0.164E-03    0.703E-03
RMM:  22    -0.127946010878E+04   -0.13646E-04   -0.48348E-07  1193   0.118E-03    0.574E-03
RMM:  23    -0.127946011598E+04   -0.72053E-05   -0.36946E-07  1154   0.118E-03    0.597E-03
RMM:  24    -0.127946012960E+04   -0.13616E-04   -0.43987E-07  1186   0.961E-04    0.205E-03
RMM:  25    -0.127946014231E+04   -0.12710E-04   -0.42127E-07  1152   0.952E-04    0.273E-03
RMM:  26    -0.127946014867E+04   -0.63584E-05   -0.31849E-07  1099   0.853E-04    0.239E-03
RMM:  27    -0.127946015313E+04   -0.44627E-05   -0.22723E-07  1022   0.736E-04    0.129E-03
RMM:  28    -0.127946016028E+04   -0.71479E-05   -0.26668E-07  1057   0.646E-04    0.908E-04
RMM:  29    -0.127946016776E+04   -0.74854E-05   -0.29362E-07  1128   0.696E-04    0.109E-03
RMM:  30    -0.127946017166E+04   -0.39021E-05   -0.24841E-07  1050   0.669E-04    0.117E-03
RMM:  31    -0.127946017596E+04   -0.43005E-05   -0.24913E-07  1010   0.627E-04    0.600E-04
RMM:  32    -0.127946017921E+04   -0.32426E-05   -0.23239E-07  1039   0.613E-04    0.413E-04
RMM:  33    -0.127946018127E+04   -0.20686E-05   -0.19396E-07  1011   0.559E-04    0.310E-04
RMM:  34    -0.127946018317E+04   -0.18919E-05   -0.18534E-07  1006   0.541E-04    0.260E-04
RMM:  35    -0.127946018412E+04   -0.95367E-06   -0.14484E-07   955   0.512E-04
  11 F= -.12884131E+04 E0= -.12884054E+04  d E =-.220727E-01  mag=    41.0000
 curvature:  -0.24 expect dE=-0.337E-01 dE for cont linesearch -0.767E-08
 trial: gam= 0.45427 g(F)=  0.131E+00 g(S)=  0.702E-02 ort =-0.174E-03 (trialstep = 0.296E+00)
 search vector abs. value=  0.336E+00
 bond charge predicted
       N       E                     dE             d eps       ncg     rms          rms(c)
DAV:   1    -0.127946902702E+04   -0.88438E-02   -0.80486E+00  2160   0.531E+00    0.101E+00
RMM:   2    -0.127949059095E+04   -0.21564E-01   -0.16857E-01  2603   0.855E-01    0.181E+00
RMM:   3    -0.127951377630E+04   -0.23185E-01   -0.40549E-02  2654   0.397E-01    0.531E+00
RMM:   4    -0.127948516609E+04    0.28610E-01   -0.24607E-02  2524   0.330E-01    0.175E+00
RMM:   5    -0.127948814088E+04   -0.29748E-02   -0.11804E-02  2413   0.253E-01    0.631E-01
RMM:   6    -0.127948990710E+04   -0.17662E-02   -0.33940E-03  2557   0.114E-01    0.828E-01
RMM:   7    -0.127948924579E+04    0.66131E-03   -0.20211E-03  2530   0.893E-02    0.566E-01
RMM:   8    -0.127948903424E+04    0.21155E-03   -0.15739E-03  2445   0.786E-02    0.348E-01
RMM:   9    -0.127948921755E+04   -0.18331E-03   -0.60966E-04  2554   0.519E-02    0.356E-01
RMM:  10    -0.127948924267E+04   -0.25119E-04   -0.41959E-04  2386   0.426E-02    0.375E-01
RMM:  11    -0.127948905519E+04    0.18747E-03   -0.15413E-04  2331   0.265E-02    0.210E-01
RMM:  12    -0.127948909961E+04   -0.44414E-04   -0.70010E-05  2151   0.167E-02    0.942E-02
RMM:  13    -0.127948916584E+04   -0.66226E-04   -0.37860E-05  1976   0.136E-02    0.466E-02
RMM:  14    -0.127948920059E+04   -0.34758E-04   -0.17349E-05  1723   0.920E-03    0.392E-02
RMM:  15    -0.127948921294E+04   -0.12347E-04   -0.10781E-05  1577   0.703E-03    0.361E-02
RMM:  16    -0.127948922787E+04   -0.14934E-04   -0.60042E-06  1531   0.542E-03    0.307E-02
RMM:  17    -0.127948924644E+04   -0.18565E-04   -0.34422E-06  1475   0.395E-03    0.192E-02
RMM:  18    -0.127948925691E+04   -0.10472E-04   -0.23295E-06  1446   0.361E-03    0.109E-02
RMM:  19    -0.127948927162E+04   -0.14713E-04   -0.97775E-07  1315   0.224E-03    0.127E-02
RMM:  20    -0.127948927850E+04   -0.68809E-05   -0.68373E-07  1275   0.192E-03    0.130E-02
RMM:  21    -0.127948928616E+04   -0.76603E-05   -0.50786E-07  1254   0.156E-03    0.808E-03
RMM:  22    -0.127948929899E+04   -0.12823E-04   -0.40853E-07  1234   0.122E-03    0.598E-03
RMM:  23    -0.127948931031E+04   -0.11327E-04   -0.36062E-07  1190   0.106E-03    0.310E-03
RMM:  24    -0.127948931768E+04   -0.73651E-05   -0.28817E-07  1137   0.982E-04    0.297E-03
RMM:  25    -0.127948932260E+04   -0.49178E-05   -0.20706E-07  1061   0.783E-04    0.172E-03
RMM:  26    -0.127948932728E+04   -0.46796E-05   -0.15719E-07   998   0.639E-04    0.139E-03
RMM:  27    -0.127948933388E+04   -0.66046E-05   -0.16300E-07  1016   0.579E-04    0.932E-04
RMM:  28    -0.127948934217E+04   -0.82878E-05   -0.21449E-07  1116   0.601E-04    0.878E-04
RMM:  29    -0.127948934599E+04   -0.38190E-05   -0.17002E-07  1044   0.607E-04    0.123E-03
RMM:  30    -0.127948934815E+04   -0.21569E-05   -0.12844E-07   910   0.504E-04    0.838E-04
RMM:  31    -0.127948935258E+04   -0.44390E-05   -0.16058E-07  1006   0.507E-04    0.391E-04
RMM:  32    -0.127948935651E+04   -0.39218E-05   -0.18554E-07  1052   0.548E-04    0.328E-04
RMM:  33    -0.127948935845E+04   -0.19449E-05   -0.16424E-07   998   0.533E-04    0.257E-04
RMM:  34    -0.127948935938E+04   -0.93107E-06   -0.12846E-07   925   0.482E-04
  12 F= -.12884394E+04 E0= -.12884316E+04  d E =-.262521E-01  mag=    41.0000
 trial-energy change:   -0.026252  1 .order   -0.026192   -0.040704   -0.011679
 step:   0.4147(harm=  0.4147)  dis= 0.01732  next Energy= -1288.441684 (dE=-0.285E-01)
 bond charge predicted
       N       E                     dE             d eps       ncg     rms          rms(c)
DAV:   1    -0.127948974342E+04   -0.38497E-03   -0.13031E+00  2208   0.214E+00    0.405E-01
RMM:   2    -0.127949286837E+04   -0.31249E-02   -0.26042E-02  2601   0.341E-01    0.804E-01
RMM:   3    -0.127949602834E+04   -0.31600E-02   -0.62112E-03  2658   0.156E-01    0.183E+00
RMM:   4    -0.127949240308E+04    0.36253E-02   -0.38479E-03  2536   0.131E-01    0.690E-01
RMM:   5    -0.127949257118E+04   -0.16810E-03   -0.16305E-03  2408   0.937E-02    0.217E-01
RMM:   6    -0.127949288249E+04   -0.31131E-03   -0.51878E-04  2549   0.442E-02    0.295E-01
RMM:   7    -0.127949281833E+04    0.64160E-04   -0.34204E-04  2517   0.363E-02    0.200E-01
RMM:   8    -0.127949280105E+04    0.17271E-04   -0.25290E-04  2387   0.322E-02    0.118E-01
RMM:   9    -0.127949285011E+04   -0.49058E-04   -0.86235E-05  2421   0.198E-02    0.126E-01
RMM:  10    -0.127949283306E+04    0.17056E-04   -0.52202E-05  2018   0.148E-02    0.109E-01
RMM:  11    -0.127949282366E+04    0.93936E-05   -0.18320E-05  1686   0.926E-03    0.563E-02
RMM:  12    -0.127949283807E+04   -0.14409E-04   -0.71344E-06  1553   0.587E-03    0.227E-02
RMM:  13    -0.127949285004E+04   -0.11966E-04   -0.43913E-06  1504   0.478E-03    0.224E-02
RMM:  14    -0.127949285459E+04   -0.45522E-05   -0.21324E-06  1445   0.362E-03    0.139E-02
RMM:  15    -0.127949285848E+04   -0.38888E-05   -0.11830E-06  1358   0.253E-03    0.114E-02
RMM:  16    -0.127949286182E+04   -0.33427E-05   -0.90829E-07  1322   0.224E-03    0.105E-02
RMM:  17    -0.127949286598E+04   -0.41562E-05   -0.57397E-07  1274   0.173E-03    0.666E-03
RMM:  18    -0.127949286893E+04   -0.29546E-05   -0.35782E-07  1226   0.133E-03    0.414E-03
RMM:  19    -0.127949287142E+04   -0.24833E-05   -0.21527E-07  1165   0.101E-03    0.662E-03
RMM:  20    -0.127949287318E+04   -0.17628E-05   -0.14295E-07  1112   0.859E-04    0.544E-03
RMM:  21    -0.127949287529E+04   -0.21115E-05   -0.89485E-08  1016   0.588E-04    0.330E-03
RMM:  22    -0.127949287769E+04   -0.24030E-05   -0.79904E-08   932   0.582E-04    0.203E-03
RMM:  23    -0.127949288001E+04   -0.23161E-05   -0.70552E-08   921   0.521E-04    0.115E-03
RMM:  24    -0.127949288187E+04   -0.18628E-05   -0.59890E-08   920   0.468E-04    0.118E-03
RMM:  25    -0.127949288297E+04   -0.10974E-05   -0.42376E-08   808   0.418E-04    0.776E-04
RMM:  26    -0.127949288420E+04   -0.12341E-05   -0.34670E-08   755   0.367E-04    0.560E-04
RMM:  27    -0.127949288585E+04   -0.16490E-05   -0.42851E-08   809   0.359E-04    0.449E-04
RMM:  28    -0.127949288695E+04   -0.10971E-05   -0.43004E-08   848   0.374E-04    0.628E-04
RMM:  29    -0.127949288785E+04   -0.89528E-06   -0.36991E-08   784   0.352E-04
  13 F= -.12884417E+04 E0= -.12884340E+04  d E =-.285999E-01  mag=    41.0000
 curvature:  -0.51 expect dE=-0.347E-01 dE for cont linesearch -0.656E-07
 trial: gam= 0.48797 g(F)=  0.655E-01 g(S)=  0.294E-02 ort =-0.209E-03 (trialstep = 0.320E+00)
 search vector abs. value=  0.148E+00
 bond charge predicted
       N       E                     dE             d eps       ncg     rms          rms(c)
DAV:   1    -0.127949855507E+04   -0.56681E-02   -0.38547E+00  2160   0.399E+00    0.690E-01
RMM:   2    -0.127951067568E+04   -0.12121E-01   -0.90150E-02  2557   0.643E-01    0.148E+00
RMM:   3    -0.127951741692E+04   -0.67412E-02   -0.19906E-02  2652   0.289E-01    0.316E+00
RMM:   4    -0.127950818513E+04    0.92318E-02   -0.11302E-02  2556   0.226E-01    0.122E+00
RMM:   5    -0.127950814228E+04    0.42842E-04   -0.49971E-03  2419   0.163E-01    0.391E-01
RMM:   6    -0.127950893707E+04   -0.79479E-03   -0.15835E-03  2558   0.774E-02    0.542E-01
RMM:   7    -0.127950863927E+04    0.29780E-03   -0.99073E-04  2542   0.620E-02    0.376E-01
RMM:   8    -0.127950852352E+04    0.11575E-03   -0.81615E-04  2459   0.577E-02    0.215E-01
RMM:   9    -0.127950868099E+04   -0.15747E-03   -0.34851E-04  2543   0.388E-02    0.301E-01
RMM:  10    -0.127950860462E+04    0.76374E-04   -0.20875E-04  2342   0.305E-02    0.277E-01
RMM:  11    -0.127950850997E+04    0.94654E-04   -0.74551E-05  2173   0.178E-02    0.125E-01
RMM:  12    -0.127950856406E+04   -0.54097E-04   -0.41932E-05  1975   0.134E-02    0.580E-02
RMM:  13    -0.127950859734E+04   -0.33275E-04   -0.19350E-05  1752   0.979E-03    0.333E-02
RMM:  14    -0.127950860892E+04   -0.11579E-04   -0.82967E-06  1565   0.650E-03    0.262E-02
RMM:  15    -0.127950861532E+04   -0.64027E-05   -0.55516E-06  1528   0.523E-03    0.280E-02
RMM:  16    -0.127950862227E+04   -0.69474E-05   -0.36208E-06  1489   0.417E-03    0.272E-02
RMM:  17    -0.127950862787E+04   -0.56009E-05   -0.23887E-06  1444   0.339E-03    0.164E-02
RMM:  18    -0.127950863400E+04   -0.61288E-05   -0.11366E-06  1354   0.252E-03    0.104E-02
RMM:  19    -0.127950863802E+04   -0.40228E-05   -0.82511E-07  1291   0.211E-03    0.127E-02
RMM:  20    -0.127950864188E+04   -0.38651E-05   -0.38542E-07  1249   0.146E-03    0.115E-02
RMM:  21    -0.127950864457E+04   -0.26856E-05   -0.28356E-07  1188   0.119E-03    0.866E-03
RMM:  22    -0.127950864962E+04   -0.50518E-05   -0.23371E-07  1159   0.106E-03    0.314E-03
RMM:  23    -0.127950865552E+04   -0.59028E-05   -0.17102E-07  1148   0.734E-04    0.171E-03
RMM:  24    -0.127950865848E+04   -0.29528E-05   -0.12982E-07  1053   0.707E-04    0.249E-03
RMM:  25    -0.127950866033E+04   -0.18485E-05   -0.89700E-08   910   0.577E-04    0.162E-03
RMM:  26    -0.127950866241E+04   -0.20885E-05   -0.64239E-08   864   0.460E-04    0.122E-03
RMM:  27    -0.127950866546E+04   -0.30499E-05   -0.74503E-08   916   0.433E-04    0.861E-04
RMM:  28    -0.127950866865E+04   -0.31906E-05   -0.91287E-08  1023   0.457E-04    0.686E-04
RMM:  29    -0.127950867010E+04   -0.14497E-05   -0.68780E-08   911   0.438E-04    0.935E-04
RMM:  30    -0.127950867109E+04   -0.98349E-06   -0.52003E-08   808   0.385E-04
  14 F= -.12884565E+04 E0= -.12884488E+04  d E =-.147772E-01  mag=    41.0000
 trial-energy change:   -0.014777  1 .order   -0.014759   -0.021847   -0.007671
 step:   0.4924(harm=  0.4924)  dis= 0.00822  next Energy= -1288.458577 (dE=-0.168E-01)
 bond charge predicted
       N       E                     dE             d eps       ncg     rms          rms(c)
DAV:   1    -0.127950836915E+04    0.30096E-03   -0.11286E+00  2208   0.216E+00    0.373E-01
RMM:   2    -0.127951182597E+04   -0.34568E-02   -0.26273E-02  2550   0.348E-01    0.868E-01
RMM:   3    -0.127951337706E+04   -0.15511E-02   -0.57819E-03  2662   0.155E-01    0.151E+00
RMM:   4    -0.127951126716E+04    0.21099E-02   -0.32429E-03  2557   0.122E-01    0.655E-01
RMM:   5    -0.127951107948E+04    0.18768E-03   -0.13277E-03  2430   0.834E-02    0.191E-01
RMM:   6    -0.127951133917E+04   -0.25969E-03   -0.44669E-04  2534   0.407E-02    0.264E-01
RMM:   7    -0.127951128174E+04    0.57430E-04   -0.29915E-04  2515   0.342E-02    0.186E-01
RMM:   8    -0.127951125896E+04    0.22785E-04   -0.23786E-04  2417   0.313E-02    0.109E-01
RMM:   9    -0.127951130653E+04   -0.47572E-04   -0.92431E-05  2394   0.201E-02    0.135E-01
RMM:  10    -0.127951127822E+04    0.28305E-04   -0.51709E-05  2007   0.150E-02    0.107E-01
RMM:  11    -0.127951127091E+04    0.73090E-05   -0.17374E-05  1678   0.880E-03    0.448E-02
RMM:  12    -0.127951128797E+04   -0.17053E-04   -0.94728E-06  1558   0.673E-03    0.261E-02
RMM:  13    -0.127951129546E+04   -0.74922E-05   -0.42112E-06  1498   0.479E-03    0.169E-02
RMM:  14    -0.127951129848E+04   -0.30246E-05   -0.20277E-06  1442   0.338E-03    0.133E-02
RMM:  15    -0.127951130118E+04   -0.26977E-05   -0.14858E-06  1410   0.279E-03    0.142E-02
RMM:  16    -0.127951130403E+04   -0.28446E-05   -0.10151E-06  1345   0.231E-03    0.137E-02
RMM:  17    -0.127951130622E+04   -0.21980E-05   -0.66235E-07  1279   0.186E-03    0.826E-03
RMM:  18    -0.127951130853E+04   -0.23077E-05   -0.33166E-07  1232   0.135E-03    0.557E-03
RMM:  19    -0.127951131002E+04   -0.14859E-05   -0.24520E-07  1169   0.115E-03    0.713E-03
RMM:  20    -0.127951131170E+04   -0.16834E-05   -0.12699E-07  1134   0.793E-04    0.597E-03
RMM:  21    -0.127951131276E+04   -0.10572E-05   -0.88301E-08  1041   0.658E-04    0.412E-03
RMM:  22    -0.127951131487E+04   -0.21147E-05   -0.73850E-08   923   0.589E-04    0.132E-03
RMM:  23    -0.127951131717E+04   -0.22978E-05   -0.62464E-08   956   0.470E-04    0.115E-03
RMM:  24    -0.127951131818E+04   -0.10101E-05   -0.45521E-08   859   0.449E-04    0.135E-03
RMM:  25    -0.127951131897E+04   -0.78760E-06   -0.30182E-08   734   0.389E-04
  15 F= -.12884586E+04 E0= -.12884508E+04  d E =-.168434E-01  mag=    41.0000
 curvature:  -0.53 expect dE=-0.377E-01 dE for cont linesearch -0.129E-06
 trial: gam= 1.02477 g(F)=  0.685E-01 g(S)=  0.213E-02 ort =-0.189E-03 (trialstep = 0.232E+00)
 search vector abs. value=  0.226E+00
 bond charge predicted
       N       E                     dE             d eps       ncg     rms          rms(c)
DAV:   1    -0.127950956441E+04    0.17538E-02   -0.29434E+00  2184   0.348E+00    0.651E-01
RMM:   2    -0.127951978573E+04   -0.10221E-01   -0.78858E-02  2569   0.571E-01    0.142E+00
RMM:   3    -0.127952310136E+04   -0.33156E-02   -0.15486E-02  2646   0.257E-01    0.252E+00
RMM:   4    -0.127951717302E+04    0.59283E-02   -0.77291E-03  2544   0.192E-01    0.986E-01
RMM:   5    -0.127951705329E+04    0.11973E-03   -0.33401E-03  2423   0.133E-01    0.381E-01
RMM:   6    -0.127951843692E+04   -0.13836E-02   -0.22002E-03  2478   0.886E-02    0.693E-01
RMM:   7    -0.127951742915E+04    0.10078E-02   -0.17985E-03  2488   0.849E-02    0.411E-01
RMM:   8    -0.127951736235E+04    0.66801E-04   -0.14003E-03  2386   0.753E-02    0.299E-01
RMM:   9    -0.127951736762E+04   -0.52695E-05   -0.42253E-04  2410   0.445E-02    0.335E-01
RMM:  10    -0.127951722458E+04    0.14304E-03   -0.19067E-04  2304   0.297E-02    0.276E-01
RMM:  11    -0.127951713768E+04    0.86897E-04   -0.65099E-05  2126   0.166E-02    0.770E-02
RMM:  12    -0.127951722155E+04   -0.83863E-04   -0.40738E-05  1964   0.136E-02    0.570E-02
RMM:  13    -0.127951724147E+04   -0.19920E-04   -0.16552E-05  1721   0.917E-03    0.380E-02
RMM:  14    -0.127951724511E+04   -0.36402E-05   -0.62569E-06  1530   0.566E-03    0.202E-02
RMM:  15    -0.127951725161E+04   -0.65005E-05   -0.35993E-06  1495   0.408E-03    0.194E-02
RMM:  16    -0.127951725931E+04   -0.76982E-05   -0.32999E-06  1494   0.392E-03    0.258E-02
RMM:  17    -0.127951726294E+04   -0.36384E-05   -0.20284E-06  1440   0.325E-03    0.137E-02
RMM:  18    -0.127951726885E+04   -0.59041E-05   -0.91480E-07  1313   0.210E-03    0.874E-03
RMM:  19    -0.127951727261E+04   -0.37572E-05   -0.72884E-07  1278   0.194E-03    0.123E-02
RMM:  20    -0.127951727540E+04   -0.27911E-05   -0.41663E-07  1228   0.145E-03    0.109E-02
RMM:  21    -0.127951727866E+04   -0.32678E-05   -0.32929E-07  1172   0.118E-03    0.745E-03
RMM:  22    -0.127951728261E+04   -0.39495E-05   -0.29988E-07  1131   0.111E-03    0.269E-03
RMM:  23    -0.127951728768E+04   -0.50669E-05   -0.27351E-07  1164   0.840E-04    0.217E-03
RMM:  24    -0.127951728978E+04   -0.20973E-05   -0.18472E-07  1070   0.814E-04    0.259E-03
RMM:  25    -0.127951729193E+04   -0.21509E-05   -0.14152E-07   979   0.640E-04    0.125E-03
RMM:  26    -0.127951729380E+04   -0.18662E-05   -0.10502E-07   958   0.533E-04    0.871E-04
RMM:  27    -0.127951729640E+04   -0.26087E-05   -0.12046E-07   978   0.483E-04    0.837E-04
RMM:  28    -0.127951729832E+04   -0.19203E-05   -0.10976E-07  1007   0.530E-04    0.145E-03
RMM:  29    -0.127951729988E+04   -0.15571E-05   -0.10078E-07   938   0.482E-04    0.788E-04
RMM:  30    -0.127951730128E+04   -0.13988E-05   -0.89521E-08   921   0.434E-04    0.407E-04
RMM:  31    -0.127951730261E+04   -0.13262E-05   -0.91834E-08   908   0.410E-04    0.277E-04
RMM:  32    -0.127951730384E+04   -0.12311E-05   -0.98571E-08   921   0.430E-04    0.235E-04
RMM:  33    -0.127951730441E+04   -0.56732E-06   -0.77327E-08   879   0.410E-04
  16 F= -.12884648E+04 E0= -.12884570E+04  d E =-.623438E-02  mag=    41.0000
 trial-energy change:   -0.006234  1 .order   -0.006211   -0.016374    0.003953
 step:   0.1871(harm=  0.1871)  dis= 0.00412  next Energy= -1288.465181 (dE=-0.659E-02)
 bond charge predicted
       N       E                     dE             d eps       ncg     rms          rms(c)
DAV:   1    -0.127951744060E+04   -0.13676E-03   -0.11133E-01  2316   0.677E-01    0.127E-01
RMM:   2    -0.127951779522E+04   -0.35463E-03   -0.29867E-03  2574   0.111E-01    0.337E-01
RMM:   3    -0.127951779240E+04    0.28258E-05   -0.55812E-04  2651   0.486E-02    0.349E-01
RMM:   4    -0.127951772919E+04    0.63207E-04   -0.27031E-04  2477   0.363E-02    0.185E-01
RMM:   5    -0.127951769481E+04    0.34379E-04   -0.10222E-04  2245   0.225E-02    0.792E-02
RMM:   6    -0.127951776145E+04   -0.66639E-04   -0.84270E-05  2262   0.176E-02    0.129E-01
RMM:   7    -0.127951772471E+04    0.36737E-04   -0.75448E-05  2221   0.178E-02    0.787E-02
RMM:   8    -0.127951772639E+04   -0.16823E-05   -0.47299E-05  1963   0.140E-02    0.501E-02
RMM:   9    -0.127951772789E+04   -0.14964E-05   -0.11507E-05  1592   0.774E-03    0.370E-02
RMM:  10    -0.127951772564E+04    0.22557E-05   -0.44831E-06  1504   0.509E-03    0.167E-02
RMM:  11    -0.127951772802E+04   -0.23871E-05   -0.13796E-06  1382   0.272E-03    0.968E-03
RMM:  12    -0.127951772895E+04   -0.92410E-06   -0.73524E-07  1279   0.218E-03
  17 F= -.12884652E+04 E0= -.12884574E+04  d E =-.661448E-02  mag=    41.0000
 curvature:  -0.30 expect dE=-0.183E-01 dE for cont linesearch -0.123E-07
 trial: gam= 0.85845 g(F)=  0.599E-01 g(S)=  0.110E-02 ort = 0.962E-04 (trialstep = 0.222E+00)
 search vector abs. value=  0.228E+00
 bond charge predicted
       N       E                     dE             d eps       ncg     rms          rms(c)
DAV:   1    -0.127951945452E+04   -0.17265E-02   -0.25416E+00  2160   0.331E+00    0.564E-01
RMM:   2    -0.127952833986E+04   -0.88853E-02   -0.65439E-02  2589   0.539E-01    0.130E+00
RMM:   3    -0.127953190155E+04   -0.35617E-02   -0.13630E-02  2652   0.242E-01    0.247E+00
RMM:   4    -0.127952634566E+04    0.55559E-02   -0.73043E-03  2538   0.188E-01    0.976E-01
RMM:   5    -0.127952594452E+04    0.40114E-03   -0.30761E-03  2444   0.128E-01    0.264E-01
RMM:   6    -0.127952675410E+04   -0.80958E-03   -0.11223E-03  2535   0.641E-02    0.455E-01
RMM:   7    -0.127952636545E+04    0.38865E-03   -0.61286E-04  2559   0.503E-02    0.257E-01
RMM:   8    -0.127952642628E+04   -0.60834E-04   -0.56178E-04  2417   0.460E-02    0.208E-01
RMM:   9    -0.127952648365E+04   -0.57371E-04   -0.27098E-04  2464   0.340E-02    0.255E-01
RMM:  10    -0.127952641985E+04    0.63800E-04   -0.15153E-04  2337   0.264E-02    0.237E-01
RMM:  11    -0.127952634238E+04    0.77470E-04   -0.57474E-05  2106   0.157E-02    0.909E-02
RMM:  12    -0.127952639136E+04   -0.48983E-04   -0.31690E-05  1909   0.120E-02    0.448E-02
RMM:  13    -0.127952641103E+04   -0.19664E-04   -0.13391E-05  1657   0.829E-03    0.248E-02
RMM:  14    -0.127952641420E+04   -0.31698E-05   -0.52564E-06  1503   0.522E-03    0.201E-02
RMM:  15    -0.127952641551E+04   -0.13135E-05   -0.32021E-06  1482   0.405E-03    0.210E-02
RMM:  16    -0.127952641742E+04   -0.19062E-05   -0.20406E-06  1447   0.326E-03    0.191E-02
RMM:  17    -0.127952641864E+04   -0.12182E-05   -0.13313E-06  1371   0.261E-03    0.151E-02
RMM:  18    -0.127952642038E+04   -0.17403E-05   -0.75968E-07  1293   0.208E-03    0.886E-03
RMM:  19    -0.127952642177E+04   -0.13961E-05   -0.55309E-07  1267   0.174E-03    0.780E-03
RMM:  20    -0.127952642295E+04   -0.11744E-05   -0.23759E-07  1200   0.114E-03    0.791E-03
RMM:  21    -0.127952642365E+04   -0.70100E-06   -0.16352E-07  1142   0.917E-04
  18 F= -.12884748E+04 E0= -.12884670E+04  d E =-.958771E-02  mag=    41.0000
 trial-energy change:   -0.009588  1 .order   -0.009602   -0.013541   -0.005663
 step:   0.3808(harm=  0.3808)  dis= 0.00909  next Energy= -1288.476837 (dE=-0.116E-01)
 bond charge predicted
       N       E                     dE             d eps       ncg     rms          rms(c)
DAV:   1    -0.127952421578E+04    0.22072E-02   -0.13134E+00  2160   0.238E+00    0.406E-01
RMM:   2    -0.127952886340E+04   -0.46476E-02   -0.33792E-02  2592   0.388E-01    0.100E+00
RMM:   3    -0.127953016794E+04   -0.13045E-02   -0.70364E-03  2654   0.173E-01    0.163E+00
RMM:   4    -0.127952784774E+04    0.23202E-02   -0.36775E-03  2538   0.134E-01    0.690E-01
RMM:   5    -0.127952751130E+04    0.33644E-03   -0.14684E-03  2459   0.875E-02    0.184E-01
RMM:   6    -0.127952795640E+04   -0.44510E-03   -0.57121E-04  2533   0.456E-02    0.315E-01
RMM:   7    -0.127952776148E+04    0.19492E-03   -0.32107E-04  2541   0.365E-02    0.168E-01
RMM:   8    -0.127952781512E+04   -0.53640E-04   -0.29128E-04  2385   0.329E-02    0.151E-01
RMM:   9    -0.127952783273E+04   -0.17604E-04   -0.13769E-04  2396   0.243E-02    0.163E-01
RMM:  10    -0.127952780041E+04    0.32314E-04   -0.72669E-05  2104   0.183E-02    0.143E-01
RMM:  11    -0.127952777551E+04    0.24905E-04   -0.26062E-05  1874   0.107E-02    0.560E-02
RMM:  12    -0.127952779985E+04   -0.24342E-04   -0.14257E-05  1617   0.817E-03    0.297E-02
RMM:  13    -0.127952780890E+04   -0.90474E-05   -0.57961E-06  1532   0.568E-03    0.167E-02
RMM:  14    -0.127952781073E+04   -0.18346E-05   -0.24954E-06  1443   0.371E-03    0.143E-02
RMM:  15    -0.127952781183E+04   -0.10930E-05   -0.15934E-06  1416   0.293E-03    0.140E-02
RMM:  16    -0.127952781386E+04   -0.20359E-05   -0.10151E-06  1334   0.237E-03    0.135E-02
RMM:  17    -0.127952781504E+04   -0.11755E-05   -0.68673E-07  1292   0.193E-03    0.106E-02
RMM:  18    -0.127952781641E+04   -0.13708E-05   -0.40542E-07  1244   0.149E-03    0.592E-03
RMM:  19    -0.127952781758E+04   -0.11725E-05   -0.28725E-07  1183   0.126E-03    0.602E-03
RMM:  20    -0.127952781868E+04   -0.11038E-05   -0.13558E-07  1152   0.831E-04    0.554E-03
RMM:  21    -0.127952781957E+04   -0.88472E-06   -0.93921E-08  1080   0.672E-04
  19 F= -.12884768E+04 E0= -.12884690E+04  d E =-.116317E-01  mag=    41.0000
 curvature:  -0.71 expect dE=-0.223E-01 dE for cont linesearch -0.620E-08
 trial: gam= 0.51912 g(F)=  0.309E-01 g(S)=  0.490E-03 ort = 0.446E-04 (trialstep = 0.253E+00)
 search vector abs. value=  0.928E-01
 bond charge predicted
       N       E                     dE             d eps       ncg     rms          rms(c)
DAV:   1    -0.127952996824E+04   -0.21496E-02   -0.13845E+00  2160   0.247E+00    0.368E-01
RMM:   2    -0.127953389787E+04   -0.39296E-02   -0.34519E-02  2620   0.378E-01    0.789E-01
RMM:   3    -0.127953618850E+04   -0.22906E-02   -0.61930E-03  2640   0.165E-01    0.165E+00
RMM:   4    -0.127953318371E+04    0.30048E-02   -0.32247E-03  2576   0.123E-01    0.613E-01
RMM:   5    -0.127953327452E+04   -0.90809E-04   -0.12284E-03  2446   0.784E-02    0.181E-01
RMM:   6    -0.127953364819E+04   -0.37367E-03   -0.44252E-04  2515   0.414E-02    0.259E-01
RMM:   7    -0.127953351981E+04    0.12838E-03   -0.25053E-04  2518   0.328E-02    0.131E-01
RMM:   8    -0.127953362467E+04   -0.10487E-03   -0.24455E-04  2426   0.310E-02    0.170E-01
RMM:   9    -0.127953358839E+04    0.36282E-04   -0.13824E-04  2401   0.243E-02    0.131E-01
RMM:  10    -0.127953357573E+04    0.12658E-04   -0.57802E-05  2078   0.158E-02    0.113E-01
RMM:  11    -0.127953356337E+04    0.12368E-04   -0.20432E-05  1731   0.954E-03    0.664E-02
RMM:  12    -0.127953357587E+04   -0.12501E-04   -0.10518E-05  1572   0.705E-03    0.372E-02
RMM:  13    -0.127953358331E+04   -0.74400E-05   -0.43898E-06  1512   0.490E-03    0.126E-02
RMM:  14    -0.127953358832E+04   -0.50138E-05   -0.21770E-06  1416   0.337E-03    0.159E-02
RMM:  15    -0.127953358901E+04   -0.69108E-06   -0.16116E-06  1394   0.299E-03
  20 F= -.12884828E+04 E0= -.12884750E+04  d E =-.600378E-02  mag=    41.0000
 trial-energy change:   -0.006004  1 .order   -0.005999   -0.007955   -0.004043
 step:   0.5153(harm=  0.5153)  dis= 0.00754  next Energy= -1288.484919 (dE=-0.809E-02)
 bond charge predicted
       N       E                     dE             d eps       ncg     rms          rms(c)
DAV:   1    -0.127953163361E+04    0.19547E-02   -0.14787E+00  2172   0.255E+00    0.383E-01
RMM:   2    -0.127953618829E+04   -0.45547E-02   -0.37085E-02  2619   0.393E-01    0.918E-01
RMM:   3    -0.127953772580E+04   -0.15375E-02   -0.66539E-03  2641   0.171E-01    0.157E+00
RMM:   4    -0.127953534113E+04    0.23847E-02   -0.33302E-03  2579   0.126E-01    0.633E-01
RMM:   5    -0.127953519782E+04    0.14331E-03   -0.12364E-03  2466   0.780E-02    0.185E-01
RMM:   6    -0.127953557218E+04   -0.37436E-03   -0.46017E-04  2516   0.421E-02    0.267E-01
RMM:   7    -0.127953543505E+04    0.13713E-03   -0.26684E-04  2526   0.337E-02    0.136E-01
RMM:   8    -0.127953554759E+04   -0.11254E-03   -0.26506E-04  2432   0.321E-02    0.177E-01
RMM:   9    -0.127953550888E+04    0.38709E-04   -0.14834E-04  2414   0.251E-02    0.144E-01
RMM:  10    -0.127953549088E+04    0.18000E-04   -0.61605E-05  2080   0.163E-02    0.120E-01
RMM:  11    -0.127953547885E+04    0.12026E-04   -0.22416E-05  1775   0.988E-03    0.684E-02
RMM:  12    -0.127953549392E+04   -0.15064E-04   -0.11551E-05  1582   0.736E-03    0.353E-02
RMM:  13    -0.127953550267E+04   -0.87556E-05   -0.49394E-06  1526   0.519E-03    0.146E-02
RMM:  14    -0.127953550761E+04   -0.49322E-05   -0.22507E-06  1423   0.348E-03    0.158E-02
RMM:  15    -0.127953550916E+04   -0.15518E-05   -0.17912E-06  1412   0.309E-03    0.153E-02
RMM:  16    -0.127953551108E+04   -0.19272E-05   -0.10771E-06  1330   0.249E-03    0.136E-02
RMM:  17    -0.127953551306E+04   -0.19773E-05   -0.50842E-07  1267   0.157E-03    0.599E-03
RMM:  18    -0.127953551464E+04   -0.15820E-05   -0.35834E-07  1236   0.141E-03    0.548E-03
RMM:  19    -0.127953551599E+04   -0.13500E-05   -0.24124E-07  1159   0.108E-03    0.776E-03
RMM:  20    -0.127953551696E+04   -0.97052E-06   -0.15310E-07  1126   0.887E-04
  21 F= -.12884850E+04 E0= -.12884771E+04  d E =-.813032E-02  mag=    41.0000
 curvature:  -0.76 expect dE=-0.236E-01 dE for cont linesearch -0.154E-06
 trial: gam= 0.98135 g(F)=  0.306E-01 g(S)=  0.387E-03 ort = 0.137E-03 (trialstep = 0.235E+00)
 search vector abs. value=  0.121E+00
 bond charge predicted
       N       E                     dE             d eps       ncg     rms          rms(c)
DAV:   1    -0.127953519110E+04    0.32489E-03   -0.15022E+00  2160   0.257E+00    0.390E-01
RMM:   2    -0.127953873401E+04   -0.35429E-02   -0.38834E-02  2634   0.388E-01    0.528E-01
RMM:   3    -0.127954301127E+04   -0.42773E-02   -0.62131E-03  2627   0.168E-01    0.195E+00
RMM:   4    -0.127953761004E+04    0.54012E-02   -0.31608E-03  2593   0.122E-01    0.507E-01
RMM:   5    -0.127953875746E+04   -0.11474E-02   -0.13408E-03  2426   0.816E-02    0.264E-01
RMM:   6    -0.127953933457E+04   -0.57711E-03   -0.80770E-04  2445   0.555E-02    0.395E-01
RMM:   7    -0.127953894298E+04    0.39158E-03   -0.59353E-04  2444   0.514E-02    0.179E-01
RMM:   8    -0.127953908544E+04   -0.14245E-03   -0.35952E-04  2440   0.381E-02    0.199E-01
RMM:   9    -0.127953900402E+04    0.81416E-04   -0.17472E-04  2315   0.276E-02    0.108E-01
RMM:  10    -0.127953900390E+04    0.12373E-06   -0.53953E-05  2054   0.154E-02    0.810E-02
RMM:  11    -0.127953900276E+04    0.11327E-05   -0.19031E-05  1697   0.911E-03    0.565E-02
RMM:  12    -0.127953900916E+04   -0.63963E-05   -0.89807E-06  1556   0.662E-03    0.345E-02
RMM:  13    -0.127953901432E+04   -0.51622E-05   -0.38381E-06  1491   0.444E-03    0.123E-02
RMM:  14    -0.127953902066E+04   -0.63334E-05   -0.21680E-06  1437   0.330E-03    0.208E-02
RMM:  15    -0.127953902230E+04   -0.16456E-05   -0.15004E-06  1401   0.293E-03    0.156E-02
RMM:  16    -0.127953902513E+04   -0.28272E-05   -0.84859E-07  1298   0.223E-03    0.606E-03
RMM:  17    -0.127953902857E+04   -0.34376E-05   -0.44838E-07  1253   0.151E-03    0.577E-03
RMM:  18    -0.127953902997E+04   -0.14067E-05   -0.30894E-07  1195   0.126E-03    0.450E-03
RMM:  19    -0.127953903244E+04   -0.24630E-05   -0.20981E-07  1138   0.972E-04    0.550E-03
RMM:  20    -0.127953903503E+04   -0.25967E-05   -0.18472E-07  1121   0.846E-04    0.473E-03
RMM:  21    -0.127953903743E+04   -0.23999E-05   -0.15181E-07  1098   0.734E-04    0.295E-03
RMM:  22    -0.127953903871E+04   -0.12733E-05   -0.10482E-07   960   0.638E-04    0.177E-03
RMM:  23    -0.127953904034E+04   -0.16379E-05   -0.84707E-08   929   0.520E-04    0.140E-03
RMM:  24    -0.127953904207E+04   -0.17241E-05   -0.75693E-08   948   0.463E-04    0.129E-03
RMM:  25    -0.127953904362E+04   -0.15487E-05   -0.71866E-08   929   0.443E-04    0.919E-04
RMM:  26    -0.127953904459E+04   -0.97735E-06   -0.57749E-08   877   0.426E-04
  22 F= -.12884888E+04 E0= -.12884809E+04  d E =-.379205E-02  mag=    41.0000
 trial-energy change:   -0.003792  1 .order   -0.003782   -0.007322   -0.000242
 step:   0.2433(harm=  0.2433)  dis= 0.00345  next Energy= -1288.488749 (dE=-0.379E-02)
 bond charge predicted
       N       E                     dE             d eps       ncg     rms          rms(c)
DAV:   1    -0.127953903625E+04    0.73698E-05   -0.17597E-03  2328   0.881E-02    0.133E-02
RMM:   2    -0.127953903998E+04   -0.37280E-05   -0.45482E-05  2558   0.133E-02    0.191E-02
RMM:   3    -0.127953904438E+04   -0.44052E-05   -0.62588E-06  1598   0.582E-03    0.552E-02
RMM:   4    -0.127953903578E+04    0.86032E-05   -0.33703E-06  1421   0.457E-03    0.166E-02
RMM:   5    -0.127953904040E+04   -0.46277E-05   -0.15121E-06  1333   0.316E-03    0.918E-03
RMM:   6    -0.127953904228E+04   -0.18719E-05   -0.10003E-06  1293   0.236E-03    0.131E-02
RMM:   7    -0.127953904220E+04    0.75961E-07   -0.90255E-07  1297   0.252E-03
  23 F= -.12884888E+04 E0= -.12884809E+04  d E =-.379866E-02  mag=    41.0000
 curvature:  -0.47 expect dE=-0.189E-01 dE for cont linesearch -0.470E-08
 trial: gam= 1.29969 g(F)=  0.397E-01 g(S)=  0.426E-03 ort = 0.347E-04 (trialstep = 0.117E+00)
 search vector abs. value=  0.244E+00
 bond charge predicted
       N       E                     dE             d eps       ncg     rms          rms(c)
DAV:   1    -0.127954056327E+04   -0.15210E-02   -0.72587E-01  2160   0.181E+00    0.257E-01
RMM:   2    -0.127954214949E+04   -0.15862E-02   -0.18255E-02  2654   0.272E-01    0.235E-01
RMM:   3    -0.127954398326E+04   -0.18338E-02   -0.27884E-03  2623   0.114E-01    0.110E+00
RMM:   4    -0.127954193713E+04    0.20461E-02   -0.12503E-03  2666   0.732E-02    0.350E-01
RMM:   5    -0.127954236822E+04   -0.43109E-03   -0.56159E-04  2393   0.521E-02    0.143E-01
RMM:   6    -0.127954252589E+04   -0.15767E-03   -0.22304E-04  2477   0.283E-02    0.188E-01
RMM:   7    -0.127954245615E+04    0.69743E-04   -0.13944E-04  2438   0.242E-02    0.890E-02
RMM:   8    -0.127954252787E+04   -0.71723E-04   -0.11988E-04  2368   0.217E-02    0.126E-01
RMM:   9    -0.127954249915E+04    0.28722E-04   -0.68321E-05  2154   0.173E-02    0.687E-02
RMM:  10    -0.127954249935E+04   -0.19758E-06   -0.23633E-05  1797   0.102E-02    0.465E-02
RMM:  11    -0.127954250174E+04   -0.23897E-05   -0.86053E-06  1557   0.639E-03    0.353E-02
RMM:  12    -0.127954250410E+04   -0.23596E-05   -0.42276E-06  1495   0.476E-03    0.209E-02
RMM:  13    -0.127954250624E+04   -0.21412E-05   -0.15816E-06  1417   0.291E-03    0.816E-03
RMM:  14    -0.127954250865E+04   -0.24125E-05   -0.92776E-07  1317   0.227E-03    0.150E-02
RMM:  15    -0.127954250846E+04    0.18536E-06   -0.57776E-07  1263   0.191E-03
  24 F= -.12884926E+04 E0= -.12884847E+04  d E =-.381870E-02  mag=    41.0000
 trial-energy change:   -0.003819  1 .order   -0.003819   -0.004701   -0.002937
 step:   0.3120(harm=  0.3120)  dis= 0.00581  next Energy= -1288.495023 (dE=-0.626E-02)
 bond charge predicted
       N       E                     dE             d eps       ncg     rms          rms(c)
DAV:   1    -0.127953899551E+04    0.35131E-02   -0.20105E+00  2160   0.302E+00    0.429E-01
[...]
RMM:   4    -0.127960227076E+04    0.20283E-04   -0.29930E-05  2209   0.120E-02    0.410E-02
RMM:   5    -0.127960228133E+04   -0.10577E-04   -0.10042E-05  1622   0.770E-03    0.268E-02
RMM:   6    -0.127960228717E+04   -0.58416E-05   -0.63837E-06  1640   0.554E-03    0.253E-02
RMM:   7    -0.127960228775E+04   -0.57399E-06   -0.58561E-06  1523   0.552E-03
 165 F= -.12885768E+04 E0= -.12885690E+04  d E =-.207665E-03  mag=    41.0000
 curvature:  -0.83 expect dE=-0.204E-02 dE for cont linesearch -0.445E-07
 trial: gam= 1.04000 g(F)=  0.244E-02 g(S)=  0.174E-04 ort = 0.331E-04 (trialstep = 0.110E+00)
 search vector abs. value=  0.246E-01
 bond charge predicted
       N       E                     dE             d eps       ncg     rms          rms(c)
DAV:   1    -0.127960227900E+04    0.81699E-05   -0.70307E-02  2160   0.567E-01    0.736E-02
RMM:   2    -0.127960244015E+04   -0.16114E-03   -0.15903E-03  2420   0.807E-02    0.147E-01
RMM:   3    -0.127960246648E+04   -0.26336E-04   -0.25378E-04  2377   0.394E-02    0.204E-01
RMM:   4    -0.127960246467E+04    0.18151E-05   -0.13110E-04  2578   0.225E-02    0.198E-01
RMM:   5    -0.127960240940E+04    0.55265E-04   -0.62406E-05  2096   0.175E-02    0.471E-02
RMM:   6    -0.127960243257E+04   -0.23162E-04   -0.16414E-05  1773   0.854E-03    0.325E-02
RMM:   7    -0.127960244128E+04   -0.87109E-05   -0.99498E-06  1623   0.675E-03    0.383E-02
RMM:   8    -0.127960244209E+04   -0.81686E-06   -0.81754E-06  1759   0.648E-03
 166 F= -.12885770E+04 E0= -.12885693E+04  d E =-.217120E-03  mag=    41.0000
 trial-energy change:   -0.000217  1 .order   -0.000237   -0.000274   -0.000201
 step:   0.4136(harm=  0.4136)  dis= 0.00300  next Energy= -1288.577330 (dE=-0.515E-03)
 bond charge predicted
       N       E                     dE             d eps       ncg     rms          rms(c)
DAV:   1    -0.127960116586E+04    0.12754E-02   -0.53714E-01  2160   0.156E+00    0.195E-01
RMM:   2    -0.127960220307E+04   -0.10372E-02   -0.11734E-02  2446   0.214E-01    0.177E-01
RMM:   3    -0.127960292696E+04   -0.72388E-03   -0.16459E-03  2371   0.101E-01    0.530E-01
RMM:   4    -0.127960246814E+04    0.45882E-03   -0.72604E-04  2744   0.537E-02    0.385E-01
RMM:   5    -0.127960232351E+04    0.14463E-03   -0.24528E-04  2324   0.354E-02    0.830E-02
RMM:   6    -0.127960241252E+04   -0.89012E-04   -0.79656E-05  2371   0.180E-02    0.789E-02
RMM:   7    -0.127960243628E+04   -0.23762E-04   -0.61944E-05  2265   0.157E-02    0.962E-02
RMM:   8    -0.127960245434E+04   -0.18056E-04   -0.64401E-05  2201   0.161E-02    0.896E-02
RMM:   9    -0.127960245554E+04   -0.11960E-05   -0.37946E-05  2036   0.130E-02    0.594E-02
RMM:  10    -0.127960245394E+04    0.16010E-05   -0.14865E-05  1630   0.812E-03    0.415E-02
RMM:  11    -0.127960245606E+04   -0.21238E-05   -0.45928E-06  1508   0.505E-03    0.144E-02
RMM:  12    -0.127960245982E+04   -0.37656E-05   -0.22318E-06  1443   0.339E-03    0.132E-02
RMM:  13    -0.127960246076E+04   -0.93837E-06   -0.85136E-07  1314   0.236E-03
 167 F= -.12885772E+04 E0= -.12885695E+04  d E =-.405430E-03  mag=    41.0000
 curvature:  -2.05 expect dE=-0.572E-02 dE for cont linesearch -0.158E-04
 trial: gam= 1.24776 g(F)=  0.276E-02 g(S)=  0.330E-04 ort =-0.436E-03 (trialstep = 0.105E+00)
 search vector abs. value=  0.401E-01
 bond charge predicted
       N       E                     dE             d eps       ncg     rms          rms(c)
DAV:   1    -0.127960238553E+04    0.74299E-04   -0.10396E-01  2232   0.684E-01    0.833E-02
RMM:   2    -0.127960257491E+04   -0.18938E-03   -0.22389E-03  2433   0.935E-02    0.110E-01
RMM:   3    -0.127960283238E+04   -0.25747E-03   -0.35459E-04  2358   0.451E-02    0.379E-01
RMM:   4    -0.127960254091E+04    0.29147E-03   -0.17780E-04  2600   0.278E-02    0.102E-01
RMM:   5    -0.127960260423E+04   -0.63318E-04   -0.54596E-05  2088   0.172E-02    0.347E-02
RMM:   6    -0.127960262647E+04   -0.22244E-04   -0.14901E-05  1982   0.777E-03    0.361E-02
RMM:   7    -0.127960263086E+04   -0.43814E-05   -0.10976E-05  1634   0.708E-03    0.328E-02
RMM:   8    -0.127960264070E+04   -0.98465E-05   -0.13022E-05  1735   0.764E-03    0.434E-02
RMM:   9    -0.127960263767E+04    0.30311E-05   -0.69163E-06  1529   0.601E-03    0.223E-02
RMM:  10    -0.127960263936E+04   -0.16900E-05   -0.26440E-06  1404   0.369E-03    0.177E-02
RMM:  11    -0.127960264093E+04   -0.15688E-05   -0.99581E-07  1310   0.242E-03    0.126E-02
RMM:  12    -0.127960264139E+04   -0.46039E-06   -0.52870E-07  1257   0.184E-03
 168 F= -.12885774E+04 E0= -.12885697E+04  d E =-.213671E-03  mag=    41.0000
 ZBRENT: can't locate minimum, use default step
 trial-energy change:   -0.000214  1 .order   -0.000210   -0.000236   -0.000184
 step:   0.4197(harm=  0.4781)  dis= 0.00383  next Energy= -1288.577758 (dE=-0.538E-03)
 bond charge predicted
       N       E                     dE             d eps       ncg     rms          rms(c)
DAV:   1    -0.127960054948E+04    0.20915E-02   -0.93500E-01  2160   0.205E+00    0.248E-01
RMM:   2    -0.127960234512E+04   -0.17956E-02   -0.20055E-02  2440   0.279E-01    0.173E-01
RMM:   3    -0.127960304105E+04   -0.69593E-03   -0.23391E-03  2378   0.121E-01    0.382E-01
RMM:   4    -0.127960270051E+04    0.34055E-03   -0.91585E-04  2777   0.596E-02    0.193E-01
RMM:   5    -0.127960279460E+04   -0.94093E-04   -0.19336E-04  2366   0.272E-02    0.260E-01
RMM:   6    -0.127960271524E+04    0.79362E-04   -0.10973E-04  2333   0.217E-02    0.110E-01
RMM:   7    -0.127960277184E+04   -0.56608E-04   -0.10124E-04  2330   0.202E-02    0.115E-01
RMM:   8    -0.127960280845E+04   -0.36606E-04   -0.99785E-05  2329   0.200E-02    0.995E-02
RMM:   9    -0.127960280239E+04    0.60633E-05   -0.49672E-05  2155   0.153E-02    0.405E-02
RMM:  10    -0.127960281302E+04   -0.10632E-04   -0.17282E-05  1726   0.831E-03    0.477E-02
RMM:  11    -0.127960281141E+04    0.16120E-05   -0.67595E-06  1545   0.599E-03    0.135E-02
RMM:  12    -0.127960281470E+04   -0.32974E-05   -0.20348E-06  1434   0.318E-03    0.140E-02
RMM:  13    -0.127960281496E+04   -0.25659E-06   -0.95992E-07  1343   0.238E-03
 169 F= -.12885777E+04 E0= -.12885700E+04  d E =-.485977E-03  mag=    41.0000
 curvature:  -4.15 expect dE=-0.224E-01 dE for cont linesearch -0.425E-07
 trial: gam= 1.53018 g(F)=  0.539E-02 g(S)=  0.423E-05 ort = 0.203E-04 (trialstep = 0.678E-01)
 search vector abs. value=  0.992E-01
 bond charge predicted
       N       E                     dE             d eps       ncg     rms          rms(c)
DAV:   1    -0.127960282327E+04   -0.85659E-05   -0.11037E-01  2268   0.702E-01    0.858E-02
RMM:   2    -0.127960301008E+04   -0.18681E-03   -0.23531E-03  2441   0.949E-02    0.680E-02
RMM:   3    -0.127960311886E+04   -0.10877E-03   -0.27624E-04  2350   0.418E-02    0.165E-01
RMM:   4    -0.127960307446E+04    0.44394E-04   -0.11583E-04  2605   0.211E-02    0.146E-01
RMM:   5    -0.127960305083E+04    0.23630E-04   -0.36428E-05  2019   0.134E-02    0.513E-02
RMM:   6    -0.127960307580E+04   -0.24970E-04   -0.21204E-05  1981   0.959E-03    0.470E-02
RMM:   7    -0.127960307799E+04   -0.21910E-05   -0.16599E-05  1735   0.839E-03    0.456E-02
RMM:   8    -0.127960308313E+04   -0.51361E-05   -0.14811E-05  1716   0.819E-03    0.377E-02
RMM:   9    -0.127960308466E+04   -0.15313E-05   -0.66467E-06  1551   0.617E-03    0.181E-02
RMM:  10    -0.127960308565E+04   -0.99203E-06   -0.24345E-06  1436   0.364E-03
 170 F= -.12885780E+04 E0= -.12885702E+04  d E =-.301000E-03  mag=    41.0000
 trial-energy change:   -0.000301  1 .order   -0.000303   -0.000368   -0.000239
 step:   0.1931(harm=  0.1931)  dis= 0.00270  next Energy= -1288.578230 (dE=-0.524E-03)
 bond charge predicted
       N       E                     dE             d eps       ncg     rms          rms(c)
DAV:   1    -0.127960232214E+04    0.76252E-03   -0.37727E-01  2184   0.130E+00    0.158E-01
RMM:   2    -0.127960299863E+04   -0.67649E-03   -0.80130E-03  2436   0.175E-01    0.116E-01
RMM:   3    -0.127960329757E+04   -0.29894E-03   -0.88828E-04  2365   0.751E-02    0.275E-01
RMM:   4    -0.127960315093E+04    0.14664E-03   -0.36386E-04  2750   0.373E-02    0.185E-01
RMM:   5    -0.127960317236E+04   -0.21438E-04   -0.11370E-04  2209   0.224E-02    0.157E-01
RMM:   6    -0.127960317445E+04   -0.20910E-05   -0.74423E-05  2286   0.175E-02    0.942E-02
RMM:   7    -0.127960318258E+04   -0.81219E-05   -0.56717E-05  2103   0.153E-02    0.787E-02
RMM:   8    -0.127960320121E+04   -0.18630E-04   -0.45047E-05  2083   0.138E-02    0.618E-02
RMM:   9    -0.127960319728E+04    0.39291E-05   -0.18196E-05  1744   0.948E-03    0.283E-02
RMM:  10    -0.127960320178E+04   -0.45004E-05   -0.64155E-06  1542   0.533E-03    0.290E-02
RMM:  11    -0.127960320321E+04   -0.14304E-05   -0.25341E-06  1459   0.383E-03    0.789E-03
RMM:  12    -0.127960320523E+04   -0.20211E-05   -0.91461E-07  1314   0.226E-03    0.945E-03
RMM:  13    -0.127960320569E+04   -0.46134E-06   -0.47674E-07  1259   0.174E-03
 171 F= -.12885782E+04 E0= -.12885704E+04  d E =-.476661E-03  mag=    41.0000
 curvature:  -1.77 expect dE=-0.686E-02 dE for cont linesearch -0.567E-05
 trial: gam= 0.94608 g(F)=  0.388E-02 g(S)=  0.933E-05 ort =-0.565E-03 (trialstep = 0.928E-01)
 search vector abs. value=  0.917E-01
 bond charge predicted
       N       E                     dE             d eps       ncg     rms          rms(c)
DAV:   1    -0.127960295317E+04    0.25206E-03   -0.18570E-01  2160   0.914E-01    0.108E-01
RMM:   2    -0.127960328229E+04   -0.32911E-03   -0.39713E-03  2435   0.124E-01    0.906E-02
RMM:   3    -0.127960361640E+04   -0.33411E-03   -0.52583E-04  2364   0.573E-02    0.423E-01
RMM:   4    -0.127960327173E+04    0.34467E-03   -0.25736E-04  2677   0.326E-02    0.134E-01
RMM:   5    -0.127960336211E+04   -0.90377E-04   -0.85290E-05  2146   0.215E-02    0.565E-02
RMM:   6    -0.127960338414E+04   -0.22032E-04   -0.25562E-05  2087   0.986E-03    0.545E-02
RMM:   7    -0.127960338691E+04   -0.27681E-05   -0.15523E-05  1780   0.826E-03    0.423E-02
RMM:   8    -0.127960339989E+04   -0.12983E-04   -0.17635E-05  1928   0.875E-03    0.402E-02
RMM:   9    -0.127960340529E+04   -0.54009E-05   -0.10055E-05  1754   0.697E-03    0.282E-02
RMM:  10    -0.127960340506E+04    0.23126E-06   -0.37347E-06  1483   0.441E-03
 172 F= -.12885785E+04 E0= -.12885706E+04  d E =-.274608E-03  mag=    41.0000
 ZBRENT: can't locate minimum, use default step
 trial-energy change:   -0.000275  1 .order   -0.000282   -0.000311   -0.000253
 step:   0.3713(harm=  0.4963)  dis= 0.00495  next Energy= -1288.579015 (dE=-0.832E-03)
 bond charge predicted
       N       E                     dE             d eps       ncg     rms          rms(c)
DAV:   1    -0.127959947626E+04    0.39290E-02   -0.16698E+00  2160   0.274E+00    0.324E-01
RMM:   2    -0.127960279098E+04   -0.33147E-02   -0.35710E-02  2435   0.373E-01    0.283E-01
RMM:   3    -0.127960660772E+04   -0.38167E-02   -0.48980E-03  2364   0.173E-01    0.169E+00
RMM:   4    -0.127960214863E+04    0.44591E-02   -0.27069E-03  2705   0.109E-01    0.347E-01
RMM:   5    -0.127960323403E+04   -0.10854E-02   -0.86732E-04  2393   0.682E-02    0.174E-01
RMM:   6    -0.127960345647E+04   -0.22244E-03   -0.26864E-04  2563   0.312E-02    0.184E-01
RMM:   7    -0.127960343801E+04    0.18456E-04   -0.14701E-04  2417   0.251E-02    0.131E-01
RMM:   8    -0.127960351894E+04   -0.80927E-04   -0.14938E-04  2398   0.242E-02    0.128E-01
RMM:   9    -0.127960352274E+04   -0.37978E-05   -0.99584E-05  2380   0.208E-02    0.110E-01
RMM:  10    -0.127960352168E+04    0.10541E-05   -0.42262E-05  1983   0.134E-02    0.110E-01
RMM:  11    -0.127960352243E+04   -0.75037E-06   -0.13134E-05  1631   0.794E-03    0.672E-02
RMM:  12    -0.127960352746E+04   -0.50247E-05   -0.59228E-06  1531   0.536E-03    0.366E-02
RMM:  13    -0.127960353618E+04   -0.87197E-05   -0.27722E-06  1454   0.371E-03    0.126E-02
RMM:  14    -0.127960354362E+04   -0.74462E-05   -0.19147E-06  1426   0.335E-03    0.170E-02
RMM:  15    -0.127960354365E+04   -0.23872E-07   -0.99744E-07  1334   0.252E-03
 173 F= -.12885788E+04 E0= -.12885711E+04  d E =-.631779E-03  mag=    41.0000
 curvature:  -6.13 expect dE=-0.232E-01 dE for cont linesearch -0.296E-06
 trial: gam= 0.56915 g(F)=  0.375E-02 g(S)=  0.394E-04 ort =-0.665E-04 (trialstep = 0.149E+00)
 search vector abs. value=  0.334E-01
 bond charge predicted
       N       E                     dE             d eps       ncg     rms          rms(c)
DAV:   1    -0.127960335387E+04    0.18975E-03   -0.17295E-01  2244   0.888E-01    0.115E-01
RMM:   2    -0.127960366765E+04   -0.31378E-03   -0.39781E-03  2452   0.123E-01    0.778E-02
RMM:   3    -0.127960381701E+04   -0.14935E-03   -0.43453E-04  2355   0.530E-02    0.195E-01
RMM:   4    -0.127960374446E+04    0.72554E-04   -0.18045E-04  2696   0.258E-02    0.135E-01
RMM:   5    -0.127960375436E+04   -0.99079E-05   -0.55881E-05  2086   0.165E-02    0.957E-02
RMM:   6    -0.127960376134E+04   -0.69762E-05   -0.31538E-05  2039   0.115E-02    0.600E-02
RMM:   7    -0.127960376977E+04   -0.84257E-05   -0.28348E-05  1963   0.109E-02    0.620E-02
RMM:   8    -0.127960377929E+04   -0.95264E-05   -0.29998E-05  1991   0.112E-02    0.493E-02
RMM:   9    -0.127960377747E+04    0.18244E-05   -0.12011E-05  1629   0.781E-03    0.198E-02
RMM:  10    -0.127960378014E+04   -0.26749E-05   -0.40419E-06  1484   0.444E-03    0.203E-02
RMM:  11    -0.127960378078E+04   -0.63532E-06   -0.15856E-06  1393   0.302E-03
 174 F= -.12885792E+04 E0= -.12885714E+04  d E =-.401104E-03  mag=    41.0000
 trial-energy change:   -0.000401  1 .order   -0.000397   -0.000557   -0.000237
 step:   0.2463(harm=  0.2585)  dis= 0.00188  next Energy= -1288.579295 (dE=-0.480E-03)
 bond charge predicted
       N       E                     dE             d eps       ncg     rms          rms(c)
DAV:   1    -0.127960356844E+04    0.21171E-03   -0.74857E-02  2268   0.584E-01    0.759E-02
RMM:   2    -0.127960370855E+04   -0.14012E-03   -0.17326E-03  2451   0.813E-02    0.103E-01
RMM:   3    -0.127960391953E+04   -0.21098E-03   -0.26765E-04  2349   0.397E-02    0.381E-01
RMM:   4    -0.127960364771E+04    0.27182E-03   -0.14719E-04  2548   0.260E-02    0.880E-02
RMM:   5    -0.127960371942E+04   -0.71709E-04   -0.44580E-05  2067   0.159E-02    0.415E-02
RMM:   6    -0.127960374674E+04   -0.27329E-04   -0.18560E-05  1968   0.856E-03    0.559E-02
RMM:   7    -0.127960374442E+04    0.23213E-05   -0.12766E-05  1672   0.776E-03    0.376E-02
RMM:   8    -0.127960375222E+04   -0.77938E-05   -0.12192E-05  1745   0.746E-03    0.304E-02
RMM:   9    -0.127960375337E+04   -0.11567E-05   -0.61523E-06  1532   0.576E-03    0.230E-02
RMM:  10    -0.127960375317E+04    0.19912E-06   -0.24809E-06  1442   0.379E-03
 175 F= -.12885793E+04 E0= -.12885715E+04  d E =-.481281E-03  mag=    41.0000
 curvature:  -1.14 expect dE=-0.444E-02 dE for cont linesearch -0.932E-06
 trial: gam= 1.04356 g(F)=  0.385E-02 g(S)=  0.545E-04 ort = 0.165E-03 (trialstep = 0.138E+00)
 search vector abs. value=  0.406E-01
 bond charge predicted
       N       E                     dE             d eps       ncg     rms          rms(c)
DAV:   1    -0.127960339767E+04    0.35571E-03   -0.18866E-01  2184   0.927E-01    0.116E-01
RMM:   2    -0.127960382315E+04   -0.42548E-03   -0.41988E-03  2468   0.127E-01    0.269E-01
RMM:   3    -0.127960395314E+04   -0.12999E-03   -0.58780E-04  2410   0.585E-02    0.414E-01
RMM:   4    -0.127960374801E+04    0.20513E-03   -0.28280E-04  2661   0.364E-02    0.140E-01
RMM:   5    -0.127960377942E+04   -0.31412E-04   -0.85478E-05  2196   0.206E-02    0.719E-02
RMM:   6    -0.127960383248E+04   -0.53056E-04   -0.56986E-05  2240   0.144E-02    0.968E-02
RMM:   7    -0.127960381511E+04    0.17366E-04   -0.37963E-05  2077   0.132E-02    0.596E-02
RMM:   8    -0.127960382705E+04   -0.11941E-04   -0.24378E-05  1958   0.103E-02    0.479E-02
RMM:   9    -0.127960382972E+04   -0.26656E-05   -0.12514E-05  1603   0.784E-03    0.310E-02
RMM:  10    -0.127960383097E+04   -0.12487E-05   -0.50714E-06  1516   0.529E-03    0.248E-02
RMM:  11    -0.127960383144E+04   -0.47522E-06   -0.15835E-06  1421   0.313E-03
 176 F= -.12885796E+04 E0= -.12885718E+04  d E =-.342979E-03  mag=    41.0000
 trial-energy change:   -0.000343  1 .order   -0.000357   -0.000563   -0.000150
 step:   0.2106(harm=  0.1885)  dis= 0.00166  next Energy= -1288.579676 (dE=-0.380E-03)
 bond charge predicted
       N       E                     dE             d eps       ncg     rms          rms(c)
DAV:   1    -0.127960359308E+04    0.23789E-03   -0.51764E-02  2280   0.486E-01    0.613E-02
RMM:   2    -0.127960372150E+04   -0.12842E-03   -0.11635E-03  2462   0.676E-02    0.180E-01
RMM:   3    -0.127960370284E+04    0.18658E-04   -0.16442E-04  2391   0.313E-02    0.173E-01
RMM:   4    -0.127960370373E+04   -0.88174E-06   -0.86478E-05  2450   0.200E-02    0.947E-02
RMM:   5    -0.127960369686E+04    0.68687E-05   -0.28545E-05  1955   0.124E-02    0.335E-02
RMM:   6    -0.127960371251E+04   -0.15649E-04   -0.15302E-05  1871   0.771E-03    0.515E-02
RMM:   7    -0.127960370853E+04    0.39793E-05   -0.11213E-05  1676   0.721E-03    0.305E-02
RMM:   8    -0.127960371276E+04   -0.42321E-05   -0.78323E-06  1569   0.623E-03    0.247E-02
RMM:   9    -0.127960371536E+04   -0.26008E-05   -0.38793E-06  1472   0.463E-03    0.211E-02
RMM:  10    -0.127960371536E+04   -0.29468E-08   -0.17601E-06  1421   0.332E-03
 177 F= -.12885797E+04 E0= -.12885719E+04  d E =-.365532E-03  mag=    41.0000
 curvature:  -0.76 expect dE=-0.218E-02 dE for cont linesearch -0.277E-05
 trial: gam= 0.88469 g(F)=  0.281E-02 g(S)=  0.519E-04 ort =-0.385E-03 (trialstep = 0.153E+00)
 search vector abs. value=  0.340E-01
 bond charge predicted
       N       E                     dE             d eps       ncg     rms          rms(c)
DAV:   1    -0.127960318215E+04    0.53321E-03   -0.18687E-01  2160   0.926E-01    0.114E-01
RMM:   2    -0.127960353603E+04   -0.35388E-03   -0.41740E-03  2540   0.126E-01    0.161E-01
RMM:   3    -0.127960403091E+04   -0.49488E-03   -0.62278E-04  2423   0.593E-02    0.602E-01
RMM:   4    -0.127960340806E+04    0.62286E-03   -0.35652E-04  2628   0.403E-02    0.140E-01
RMM:   5    -0.127960355597E+04   -0.14791E-03   -0.10816E-04  2223   0.241E-02    0.670E-02
RMM:   6    -0.127960360441E+04   -0.48438E-04   -0.35557E-05  2130   0.120E-02    0.670E-02
RMM:   7    -0.127960360875E+04   -0.43402E-05   -0.21005E-05  1913   0.966E-03    0.550E-02
RMM:   8    -0.127960361707E+04   -0.83200E-05   -0.16486E-05  1939   0.860E-03    0.366E-02
RMM:   9    -0.127960362757E+04   -0.10505E-04   -0.12384E-05  1668   0.753E-03    0.484E-02
RMM:  10    -0.127960362283E+04    0.47397E-05   -0.66089E-06  1536   0.607E-03    0.386E-02
RMM:  11    -0.127960362331E+04   -0.47741E-06   -0.22209E-06  1442   0.374E-03
 178 F= -.12885800E+04 E0= -.12885721E+04  d E =-.294304E-03  mag=    41.0000
 trial-energy change:   -0.000294  1 .order   -0.000315   -0.000385   -0.000245
 step:   0.4196(harm=  0.4196)  dis= 0.00278  next Energy= -1288.580191 (dE=-0.530E-03)
 bond charge predicted
       N       E                     dE             d eps       ncg     rms          rms(c)
DAV:   1    -0.127960177414E+04    0.18487E-02   -0.57139E-01  2160   0.162E+00    0.200E-01
RMM:   2    -0.127960304429E+04   -0.12702E-02   -0.12797E-02  2519   0.222E-01    0.379E-01
RMM:   3    -0.127960411484E+04   -0.10705E-02   -0.19262E-03  2429   0.104E-01    0.981E-01
RMM:   4    -0.127960274092E+04    0.13739E-02   -0.10659E-03  2658   0.707E-02    0.268E-01
RMM:   5    -0.127960295887E+04   -0.21795E-03   -0.32700E-04  2379   0.421E-02    0.107E-01
RMM:   6    -0.127960309415E+04   -0.13528E-03   -0.12980E-04  2434   0.214E-02    0.130E-01
RMM:   7    -0.127960308638E+04    0.77669E-05   -0.66942E-05  2283   0.168E-02    0.901E-02
