       N       E                     dE             d eps       ncg     rms          rms(c)
DAV:   1     0.902985300897E+04    0.90299E+04   -0.36288E+05  2160   0.136E+03
DAV:   2     0.758753105738E+03   -0.82711E+04   -0.74670E+04  2544   0.424E+02
DAV:   3    -0.131991487373E+04   -0.20787E+04   -0.19682E+04  3576   0.212E+02
DAV:   4    -0.147455284246E+04   -0.15464E+03   -0.14395E+03  3384   0.650E+01
DAV:   5    -0.148265424521E+04   -0.81014E+01   -0.75790E+01  3600   0.144E+01    0.162E+02
RMM:   6    -0.199652114638E+04   -0.51387E+03   -0.35215E+03  2920   0.131E+02    0.523E+02
RMM:   7    -0.175092705761E+04    0.24559E+03   -0.25629E+02  2178   0.449E+01    0.323E+02
RMM:   8    -0.128454891840E+04    0.46638E+03   -0.55230E+02  2434   0.445E+01    0.853E+01
RMM:   9    -0.151890026262E+04   -0.23435E+03   -0.10773E+02  2343   0.191E+01    0.176E+02
RMM:  10    -0.138756896483E+04    0.13133E+03   -0.11786E+02  2232   0.246E+01    0.150E+02
RMM:  11    -0.132529267246E+04    0.62276E+02   -0.82961E+01  2299   0.198E+01    0.119E+02
RMM:  12    -0.131385630962E+04    0.11436E+02   -0.43430E+01  2296   0.141E+01    0.110E+02
RMM:  13    -0.130638231450E+04    0.74740E+01   -0.53809E+01  2188   0.161E+01    0.110E+02
RMM:  14    -0.127244277805E+04    0.33940E+02   -0.32593E+01  2258   0.122E+01    0.953E+01
RMM:  15    -0.126352318950E+04    0.89196E+01   -0.13602E+01  2330   0.734E+00    0.847E+01
RMM:  16    -0.125600946137E+04    0.75137E+01   -0.93784E+00  2269   0.606E+00    0.705E+01
RMM:  17    -0.126020748539E+04   -0.41980E+01   -0.10320E+01  2302   0.673E+00    0.739E+01
RMM:  18    -0.125460175190E+04    0.56057E+01   -0.68757E+00  2291   0.520E+00    0.594E+01
RMM:  19    -0.124982448590E+04    0.47773E+01   -0.30248E+00  2316   0.351E+00    0.447E+01
RMM:  20    -0.124872756423E+04    0.10969E+01   -0.21483E+00  2283   0.290E+00    0.367E+01
RMM:  21    -0.124974206329E+04   -0.10145E+01   -0.11220E+00  2305   0.211E+00    0.393E+01
RMM:  22    -0.124947451521E+04    0.26755E+00   -0.95026E-01  2284   0.199E+00    0.346E+01
RMM:  23    -0.124935964988E+04    0.11487E+00   -0.62356E-01  2250   0.162E+00    0.317E+01
RMM:  24    -0.124940438044E+04   -0.44731E-01   -0.45612E-01  2286   0.137E+00    0.274E+01
RMM:  25    -0.124907557658E+04    0.32880E+00   -0.21356E-01  2278   0.101E+00    0.249E+01
RMM:  26    -0.124904307936E+04    0.32497E-01   -0.48124E-02  2458   0.447E-01    0.252E+01
RMM:  27    -0.124904106357E+04    0.20158E-02   -0.25405E-02  2485   0.277E-01    0.249E+01
RMM:  28    -0.124928719342E+04   -0.24613E+00   -0.70359E-02  2270   0.519E-01    0.252E+01
RMM:  29    -0.124967467222E+04   -0.38748E+00   -0.10264E-01  2289   0.595E-01    0.276E+01
RMM:  30    -0.124957333301E+04    0.10134E+00   -0.11911E-01  2258   0.699E-01    0.249E+01
RMM:  31    -0.124958990194E+04   -0.16569E-01   -0.36059E-02  2258   0.410E-01    0.250E+01
RMM:  32    -0.124966105126E+04   -0.71149E-01   -0.11876E-02  2351   0.216E-01    0.245E+01
RMM:  33    -0.124970773652E+04   -0.46685E-01   -0.30765E-03  2340   0.116E-01    0.245E+01
RMM:  34    -0.124950608753E+04    0.20165E+00   -0.91344E-03  2207   0.189E-01    0.244E+01
RMM:  35    -0.124943998291E+04    0.66105E-01   -0.52717E-03  2264   0.145E-01    0.244E+01
RMM:  36    -0.124887277530E+04    0.56721E+00   -0.70691E-02  2242   0.480E-01    0.244E+01
RMM:  37    -0.124849174856E+04    0.38103E+00   -0.21757E-01  2232   0.886E-01    0.233E+01
RMM:  38    -0.124875155495E+04   -0.25981E+00   -0.19068E-01  2253   0.858E-01    0.216E+01
RMM:  39    -0.124965624230E+04   -0.90469E+00   -0.32120E-01  2298   0.105E+00    0.225E+01
RMM:  40    -0.125045241060E+04   -0.79617E+00   -0.26432E-01  2340   0.953E-01    0.213E+01
RMM:  41    -0.125064796246E+04   -0.19555E+00   -0.78507E-02  2362   0.531E-01    0.210E+01
RMM:  42    -0.125069892858E+04   -0.50966E-01   -0.25311E-02  2520   0.295E-01    0.220E+01
RMM:  43    -0.125090268370E+04   -0.20376E+00   -0.56661E-02  2274   0.468E-01    0.226E+01
RMM:  44    -0.125101744191E+04   -0.11476E+00   -0.37756E-02  2377   0.378E-01    0.233E+01
RMM:  45    -0.125108015960E+04   -0.62718E-01   -0.10739E-01  2295   0.569E-01    0.233E+01
RMM:  46    -0.125141256515E+04   -0.33241E+00   -0.20655E-01  2317   0.737E-01    0.242E+01
RMM:  47    -0.125142793927E+04   -0.15374E-01   -0.14664E-01  2524   0.604E-01    0.230E+01
RMM:  48    -0.125200710459E+04   -0.57917E+00   -0.22093E-01  2262   0.773E-01    0.232E+01
RMM:  49    -0.125232314203E+04   -0.31604E+00   -0.92199E-01  2275   0.162E+00    0.238E+01
RMM:  50    -0.125205397707E+04    0.26916E+00   -0.26632E-01  2309   0.101E+00    0.221E+01
RMM:  51    -0.125348410961E+04   -0.14301E+01   -0.75012E-01  2268   0.164E+00    0.232E+01
RMM:  52    -0.125459804519E+04   -0.11139E+01   -0.43995E-01  2379   0.122E+00    0.228E+01
RMM:  53    -0.125544721119E+04   -0.84917E+00   -0.54398E-01  2464   0.126E+00    0.245E+01
RMM:  54    -0.125506555676E+04    0.38165E+00   -0.15958E-01  2371   0.743E-01    0.232E+01
RMM:  55    -0.125517331272E+04   -0.10776E+00   -0.10277E-01  2586   0.553E-01    0.258E+01
RMM:  56    -0.125439465965E+04    0.77865E+00   -0.40620E-01  2273   0.119E+00    0.281E+01
RMM:  57    -0.125416007932E+04    0.23458E+00   -0.16163E-01  2230   0.817E-01    0.267E+01
RMM:  58    -0.125427798958E+04   -0.11791E+00   -0.53605E-02  2552   0.419E-01    0.267E+01
RMM:  59    -0.125430578146E+04   -0.27792E-01   -0.23036E-02  2543   0.268E-01    0.264E+01
RMM:  60    -0.125429309110E+04    0.12690E-01   -0.10567E-02  2387   0.172E-01    0.261E+01
RMM:  61    -0.125471625487E+04   -0.42316E+00   -0.13044E+00  2248   0.216E+00    0.390E+01
RMM:  62    -0.125408352671E+04    0.63273E+00   -0.46393E-01  2227   0.148E+00    0.284E+01
RMM:  63    -0.125412786464E+04   -0.44338E-01   -0.19619E-01  2317   0.861E-01    0.297E+01
RMM:  64    -0.125406941552E+04    0.58449E-01   -0.80597E-02  2420   0.511E-01    0.289E+01
RMM:  65    -0.125419429511E+04   -0.12488E+00   -0.23308E-02  2657   0.218E-01    0.285E+01
RMM:  66    -0.125446414876E+04   -0.26985E+00   -0.31533E-01  2184   0.107E+00    0.278E+01
RMM:  67    -0.125525544450E+04   -0.79130E+00   -0.27072E-01  2210   0.102E+00    0.254E+01
RMM:  68    -0.125509770212E+04    0.15774E+00   -0.32350E-01  2238   0.113E+00    0.297E+01
RMM:  69    -0.125561762858E+04   -0.51993E+00   -0.15003E-01  2398   0.694E-01    0.310E+01
RMM:  70    -0.125664384148E+04   -0.10262E+01   -0.10625E-01  2374   0.522E-01    0.283E+01
RMM:  71    -0.126382490846E+04   -0.71811E+01   -0.57566E+00  2206   0.400E+00    0.419E+01
RMM:  72    -0.126154797691E+04    0.22769E+01   -0.15265E+00  2276   0.252E+00    0.323E+01
RMM:  73    -0.126131100608E+04    0.23697E+00   -0.75717E-01  2455   0.164E+00    0.231E+01
RMM:  74    -0.126223090556E+04   -0.91990E+00   -0.37334E-01  2281   0.122E+00    0.277E+01
RMM:  75    -0.126242479572E+04   -0.19389E+00   -0.18165E-01  2423   0.824E-01    0.277E+01
RMM:  76    -0.126489138234E+04   -0.24666E+01   -0.79455E-01  2228   0.170E+00    0.343E+01
RMM:  77    -0.126381034379E+04    0.10810E+01   -0.59635E-01  2255   0.155E+00    0.303E+01
RMM:  78    -0.126381406237E+04   -0.37186E-02   -0.22227E-01  2242   0.975E-01    0.272E+01
RMM:  79    -0.126387826449E+04   -0.64202E-01   -0.11383E-01  2420   0.642E-01    0.269E+01
RMM:  80    -0.126392483427E+04   -0.46570E-01   -0.36323E-02  2503   0.352E-01    0.268E+01
RMM:  81    -0.126304605129E+04    0.87878E+00   -0.16221E+00  2168   0.250E+00    0.282E+01
RMM:  82    -0.126403508002E+04   -0.98903E+00   -0.54417E-01  2215   0.161E+00    0.299E+01
RMM:  83    -0.126393280682E+04    0.10227E+00   -0.21140E-01  2341   0.933E-01    0.284E+01
RMM:  84    -0.126382610285E+04    0.10670E+00   -0.73874E-02  2371   0.584E-01    0.278E+01
RMM:  85    -0.126383870775E+04   -0.12605E-01   -0.23358E-02  2675   0.249E-01    0.287E+01
RMM:  86    -0.126961022322E+04   -0.57715E+01   -0.22423E+00  2296   0.298E+00    0.596E+01
RMM:  87    -0.126355362889E+04    0.60566E+01   -0.30390E+00  2234   0.333E+00    0.331E+01
RMM:  88    -0.126320891800E+04    0.34471E+00   -0.56066E-01  2281   0.154E+00    0.298E+01
RMM:  89    -0.126365010009E+04   -0.44118E+00   -0.18439E-01  2256   0.957E-01    0.288E+01
RMM:  90    -0.126352880595E+04    0.12129E+00   -0.48293E-02  2628   0.394E-01    0.274E+01
RMM:  91    -0.126473420897E+04   -0.12054E+01   -0.10551E+00  2244   0.199E+00    0.332E+01
RMM:  92    -0.126331563000E+04    0.14186E+01   -0.60926E-01  2245   0.162E+00    0.275E+01
RMM:  93    -0.126299386486E+04    0.32177E+00   -0.15617E-01  2352   0.808E-01    0.246E+01
RMM:  94    -0.126331129433E+04   -0.31743E+00   -0.11947E-01  2279   0.706E-01    0.264E+01
RMM:  95    -0.126272666464E+04    0.58463E+00   -0.27478E-01  2261   0.104E+00    0.221E+01
RMM:  96    -0.126524261834E+04   -0.25160E+01   -0.10971E+00  2211   0.206E+00    0.283E+01
RMM:  97    -0.126383228382E+04    0.14103E+01   -0.61755E-01  2220   0.166E+00    0.249E+01
RMM:  98    -0.126335994373E+04    0.47234E+00   -0.31499E-01  2382   0.108E+00    0.212E+01
RMM:  99    -0.126440261329E+04   -0.10427E+01   -0.33542E-01  2253   0.114E+00    0.197E+01
RMM: 100    -0.126529002767E+04   -0.88741E+00   -0.19058E-01  2422   0.751E-01    0.191E+01
RMM: 101    -0.126662834352E+04   -0.13383E+01   -0.61968E-01  2309   0.149E+00    0.221E+01
RMM: 102    -0.126658934590E+04    0.38998E-01   -0.26344E-01  2262   0.108E+00    0.187E+01
RMM: 103    -0.126729545522E+04   -0.70611E+00   -0.14310E-01  2430   0.700E-01    0.201E+01
RMM: 104    -0.126755864871E+04   -0.26319E+00   -0.55571E-02  2510   0.407E-01    0.224E+01
RMM: 105    -0.126758799185E+04   -0.29343E-01   -0.40397E-02  2296   0.359E-01    0.220E+01
RMM: 106    -0.126854875073E+04   -0.96076E+00   -0.63851E-01  2299   0.152E+00    0.288E+01
RMM: 107    -0.126807265664E+04    0.47609E+00   -0.35914E-01  2267   0.119E+00    0.261E+01
RMM: 108    -0.126786366449E+04    0.20899E+00   -0.12616E-01  2264   0.739E-01    0.241E+01
RMM: 109    -0.126772127014E+04    0.14239E+00   -0.15053E-01  2311   0.727E-01    0.236E+01
RMM: 110    -0.126778549244E+04   -0.64222E-01   -0.58044E-02  2368   0.464E-01    0.218E+01
RMM: 111    -0.126860174269E+04   -0.81625E+00   -0.41433E-01  2207   0.128E+00    0.208E+01
RMM: 112    -0.126852895824E+04    0.72784E-01   -0.31236E-01  2200   0.120E+00    0.180E+01
RMM: 113    -0.126927009101E+04   -0.74113E+00   -0.14395E-01  2237   0.804E-01    0.183E+01
RMM: 114    -0.126937269553E+04   -0.10260E+00   -0.33395E-02  2552   0.333E-01    0.181E+01
RMM: 115    -0.126977844825E+04   -0.40575E+00   -0.74251E-02  2209   0.446E-01    0.158E+01
RMM: 116    -0.127092050539E+04   -0.11421E+01   -0.51708E-01  2222   0.143E+00    0.277E+01
RMM: 117    -0.127092744293E+04   -0.69375E-02   -0.22244E-01  2240   0.991E-01    0.161E+01
RMM: 118    -0.127181670559E+04   -0.88926E+00   -0.24932E-01  2243   0.942E-01    0.194E+01
RMM: 119    -0.127205458914E+04   -0.23788E+00   -0.11945E-01  2419   0.647E-01    0.185E+01
RMM: 120    -0.127199963452E+04    0.54955E-01   -0.68423E-02  2365   0.536E-01
   1 F= -.12809213E+04 E0= -.12808908E+04  d E =-.128092E+04  mag=    24.0957
       N       E                     dE             d eps       ncg     rms          rms(c)
DAV:   1    -0.127369249497E+04   -0.16379E+01   -0.20796E+02  2544   0.370E+01    0.221E+01
RMM:   2    -0.131103289091E+04   -0.37340E+02   -0.18165E+01  2209   0.976E+00    0.957E+01
RMM:   3    -0.128071795234E+04    0.30315E+02   -0.22935E+01  2332   0.101E+01    0.508E+01
RMM:   4    -0.127561810580E+04    0.50998E+01   -0.38039E+00  2551   0.390E+00    0.380E+01
RMM:   5    -0.127771588625E+04   -0.20978E+01   -0.50294E+00  2336   0.476E+00    0.427E+01
RMM:   6    -0.127587590164E+04    0.18400E+01   -0.37663E+00  2371   0.396E+00    0.380E+01
RMM:   7    -0.127324435241E+04    0.26315E+01   -0.21142E+00  2321   0.303E+00    0.164E+01
RMM:   8    -0.127407670934E+04   -0.83236E+00   -0.10272E+00  2336   0.199E+00    0.277E+01
RMM:   9    -0.127370081653E+04    0.37589E+00   -0.64385E-01  2349   0.160E+00    0.137E+01
RMM:  10    -0.127404692430E+04   -0.34611E+00   -0.31467E-01  2274   0.122E+00    0.104E+01
RMM:  11    -0.127479938770E+04   -0.75246E+00   -0.33156E-01  2431   0.109E+00    0.196E+01
RMM:  12    -0.127459493585E+04    0.20445E+00   -0.19117E-01  2371   0.925E-01    0.128E+01
RMM:  13    -0.127514171979E+04   -0.54678E+00   -0.24966E-01  2312   0.975E-01    0.153E+01
RMM:  14    -0.127533499855E+04   -0.19328E+00   -0.20309E-01  2443   0.868E-01    0.116E+01
RMM:  15    -0.127575955701E+04   -0.42456E+00   -0.19925E-01  2289   0.904E-01    0.109E+01
RMM:  16    -0.127604555198E+04   -0.28599E+00   -0.18402E-01  2345   0.832E-01    0.915E+00
RMM:  17    -0.127632142401E+04   -0.27587E+00   -0.15099E-01  2459   0.700E-01    0.824E+00
RMM:  18    -0.127639536058E+04   -0.73937E-01   -0.57234E-02  2459   0.469E-01    0.629E+00
RMM:  19    -0.127642228798E+04   -0.26927E-01   -0.13695E-02  2611   0.193E-01    0.628E+00
RMM:  20    -0.127645686588E+04   -0.34578E-01   -0.49792E-03  2560   0.112E-01    0.611E+00
RMM:  21    -0.127665571729E+04   -0.19885E+00   -0.47885E-02  2239   0.417E-01    0.622E+00
RMM:  22    -0.127686058034E+04   -0.20486E+00   -0.83660E-02  2349   0.562E-01    0.737E+00
RMM:  23    -0.127708464497E+04   -0.22406E+00   -0.55390E-02  2357   0.457E-01    0.721E+00
RMM:  24    -0.127714921226E+04   -0.64567E-01   -0.18759E-02  2545   0.239E-01    0.681E+00
RMM:  25    -0.127731156173E+04   -0.16235E+00   -0.21298E-02  2258   0.264E-01    0.561E+00
RMM:  26    -0.127749957551E+04   -0.18801E+00   -0.24311E-02  2426   0.277E-01    0.298E+00
RMM:  27    -0.127765660425E+04   -0.15703E+00   -0.21762E-02  2294   0.303E-01    0.313E+00
RMM:  28    -0.127772906465E+04   -0.72460E-01   -0.86983E-03  2505   0.167E-01    0.281E+00
RMM:  29    -0.127782397366E+04   -0.94909E-01   -0.58131E-03  2506   0.120E-01    0.230E+00
RMM:  30    -0.127792114086E+04   -0.97167E-01   -0.65252E-03  2502   0.133E-01    0.180E+00
RMM:  31    -0.127805095401E+04   -0.12981E+00   -0.72381E-03  2347   0.141E-01    0.189E+00
RMM:  32    -0.127821243647E+04   -0.16148E+00   -0.86239E-03  2472   0.141E-01    0.130E+00
RMM:  33    -0.127836268316E+04   -0.15025E+00   -0.80224E-03  2450   0.133E-01    0.127E+00
RMM:  34    -0.127851509537E+04   -0.15241E+00   -0.90024E-03  2522   0.133E-01    0.956E-01
RMM:  35    -0.127868793217E+04   -0.17284E+00   -0.10145E-02  2554   0.110E-01    0.616E-01
RMM:  36    -0.127885922257E+04   -0.17129E+00   -0.11212E-02  2585   0.114E-01    0.435E-01
RMM:  37    -0.127896263576E+04   -0.10341E+00   -0.75962E-03  2708   0.899E-02    0.347E-01
RMM:  38    -0.127903227026E+04   -0.69634E-01   -0.46042E-03  2658   0.681E-02    0.494E-01
RMM:  39    -0.127908548787E+04   -0.53218E-01   -0.40090E-03  2600   0.646E-02    0.290E-01
RMM:  40    -0.127910943836E+04   -0.23950E-01   -0.18055E-03  2714   0.454E-02    0.184E-01
RMM:  41    -0.127912314195E+04   -0.13704E-01   -0.10635E-03  2631   0.322E-02    0.243E-01
RMM:  42    -0.127913135417E+04   -0.82122E-02   -0.57495E-04  2626   0.283E-02    0.145E-01
RMM:  43    -0.127913687605E+04   -0.55219E-02   -0.38838E-04  2643   0.190E-02    0.107E-01
RMM:  44    -0.127913998696E+04   -0.31109E-02   -0.20938E-04  2564   0.152E-02    0.864E-02
RMM:  45    -0.127914184271E+04   -0.18557E-02   -0.11578E-04  2431   0.105E-02    0.683E-02
RMM:  46    -0.127914312593E+04   -0.12832E-02   -0.71387E-05  2372   0.857E-03    0.560E-02
RMM:  47    -0.127914419647E+04   -0.10705E-02   -0.68351E-05  2341   0.917E-03    0.373E-02
RMM:  48    -0.127914451979E+04   -0.32333E-03   -0.21962E-05  2075   0.556E-03    0.297E-02
RMM:  49    -0.127914480516E+04   -0.28537E-03   -0.18094E-05  1997   0.424E-03    0.203E-02
RMM:  50    -0.127914496351E+04   -0.15835E-03   -0.94849E-06  1808   0.370E-03    0.221E-02
RMM:  51    -0.127914503574E+04   -0.72230E-04   -0.55969E-06  1645   0.273E-03    0.122E-02
RMM:  52    -0.127914507304E+04   -0.37293E-04   -0.66435E-06  1715   0.329E-03    0.842E-03
RMM:  53    -0.127914509780E+04   -0.24762E-04   -0.21239E-06  1416   0.211E-03    0.614E-03
RMM:  54    -0.127914510504E+04   -0.72374E-05   -0.90811E-07  1299   0.150E-03    0.323E-03
RMM:  55    -0.127914511324E+04   -0.82082E-05   -0.80324E-07  1280   0.123E-03    0.334E-03
RMM:  56    -0.127914511866E+04   -0.54195E-05   -0.60172E-07  1235   0.114E-03    0.286E-03
RMM:  57    -0.127914512395E+04   -0.52831E-05   -0.57516E-07  1237   0.993E-04    0.187E-03
RMM:  58    -0.127914512683E+04   -0.28865E-05   -0.37236E-07  1114   0.907E-04    0.110E-03
RMM:  59    -0.127914512878E+04   -0.19456E-05   -0.28026E-07  1076   0.684E-04    0.649E-04
RMM:  60    -0.127914513049E+04   -0.17086E-05   -0.19267E-07  1038   0.641E-04    0.404E-04
RMM:  61    -0.127914513192E+04   -0.14349E-05   -0.15634E-07   977   0.520E-04    0.322E-04
RMM:  62    -0.127914513310E+04   -0.11791E-05   -0.12107E-07   945   0.513E-04    0.516E-04
RMM:  63    -0.127914513386E+04   -0.76174E-06   -0.89059E-08   854   0.428E-04
   2 F= -.12879305E+04 E0= -.12879202E+04  d E =-.700918E+01  mag=    21.0003
       N       E                     dE             d eps       ncg     rms          rms(c)
DAV:   1    -0.128045804614E+04   -0.13129E+01   -0.75632E+01  2376   0.217E+01    0.868E+00
RMM:   2    -0.128009498506E+04    0.36306E+00   -0.46252E+00  2187   0.528E+00    0.924E+00
RMM:   3    -0.128089394111E+04   -0.79896E+00   -0.13778E+00  2541   0.240E+00    0.217E+01
RMM:   4    -0.128004433262E+04    0.84961E+00   -0.92988E-01  2578   0.178E+00    0.670E+00
RMM:   5    -0.128002429172E+04    0.20041E-01   -0.46185E-01  2388   0.136E+00    0.116E+01
RMM:   6    -0.127984907196E+04    0.17522E+00   -0.20838E-01  2489   0.883E-01    0.537E+00
RMM:   7    -0.127985960017E+04   -0.10528E-01   -0.11668E-01  2373   0.694E-01    0.450E+00
RMM:   8    -0.127979156583E+04    0.68034E-01   -0.55619E-02  2526   0.483E-01    0.290E+00
RMM:   9    -0.127977058850E+04    0.20977E-01   -0.32231E-02  2518   0.333E-01    0.244E+00
RMM:  10    -0.127975895977E+04    0.11629E-01   -0.18565E-02  2539   0.260E-01    0.158E+00
RMM:  11    -0.127975367386E+04    0.52859E-02   -0.12676E-02  2535   0.215E-01    0.113E+00
RMM:  12    -0.127975917944E+04   -0.55056E-02   -0.55020E-03  2540   0.120E-01    0.159E+00
RMM:  13    -0.127975928133E+04   -0.10188E-03   -0.12778E-03  2625   0.577E-02    0.162E+00
RMM:  14    -0.127975812706E+04    0.11543E-02   -0.36126E-04  2533   0.255E-02    0.183E+00
RMM:  15    -0.127977532425E+04   -0.17197E-01   -0.89857E-03  2313   0.165E-01    0.333E+00
RMM:  16    -0.127975895248E+04    0.16372E-01   -0.14023E-02  2531   0.202E-01    0.937E-01
RMM:  17    -0.127976392452E+04   -0.49720E-02   -0.65500E-03  2396   0.175E-01    0.793E-01
RMM:  18    -0.127976427773E+04   -0.35321E-03   -0.28733E-03  2385   0.107E-01    0.528E-01
RMM:  19    -0.127976473783E+04   -0.46010E-03   -0.10599E-03  2407   0.696E-02    0.372E-01
RMM:  20    -0.127976526767E+04   -0.52983E-03   -0.39377E-04  2487   0.386E-02    0.463E-01
RMM:  21    -0.127976572700E+04   -0.45933E-03   -0.26371E-04  2370   0.314E-02    0.585E-01
RMM:  22    -0.127976629418E+04   -0.56718E-03   -0.35218E-04  2371   0.333E-02    0.279E-01
RMM:  23    -0.127976683299E+04   -0.53881E-03   -0.30066E-04  2427   0.328E-02    0.188E-01
RMM:  24    -0.127976705075E+04   -0.21776E-03   -0.13988E-04  2308   0.243E-02    0.743E-02
RMM:  25    -0.127976730335E+04   -0.25260E-03   -0.53341E-05  2162   0.123E-02    0.989E-02
RMM:  26    -0.127976740090E+04   -0.97551E-04   -0.32552E-05  1944   0.986E-03    0.102E-01
RMM:  27    -0.127976761987E+04   -0.21897E-03   -0.30249E-05  2060   0.900E-03    0.460E-02
RMM:  28    -0.127976789707E+04   -0.27720E-03   -0.25669E-05  2137   0.682E-03    0.250E-02
RMM:  29    -0.127976800024E+04   -0.10317E-03   -0.83486E-06  1781   0.484E-03    0.171E-02
RMM:  30    -0.127976812979E+04   -0.12955E-03   -0.76665E-06  1820   0.366E-03    0.124E-02
RMM:  31    -0.127976823530E+04   -0.10550E-03   -0.42747E-06  1617   0.293E-03    0.106E-02
RMM:  32    -0.127976837278E+04   -0.13748E-03   -0.70908E-06  1769   0.288E-03    0.118E-02
RMM:  33    -0.127976851963E+04   -0.14685E-03   -0.79435E-06  1849   0.309E-03    0.103E-02
RMM:  34    -0.127976861926E+04   -0.99635E-04   -0.58127E-06  1723   0.253E-03    0.178E-02
RMM:  35    -0.127976872841E+04   -0.10915E-03   -0.74977E-06  1793   0.298E-03    0.796E-03
RMM:  36    -0.127976882675E+04   -0.98339E-04   -0.96300E-06  1847   0.275E-03    0.575E-03
RMM:  37    -0.127976886864E+04   -0.41891E-04   -0.40377E-06  1605   0.240E-03    0.190E-03
RMM:  38    -0.127976888924E+04   -0.20599E-04   -0.26239E-06  1478   0.176E-03    0.267E-03
RMM:  39    -0.127976889846E+04   -0.92205E-05   -0.11474E-06  1268   0.153E-03    0.286E-03
RMM:  40    -0.127976890335E+04   -0.48867E-05   -0.68870E-07  1189   0.107E-03    0.123E-03
RMM:  41    -0.127976890792E+04   -0.45778E-05   -0.46547E-07  1117   0.910E-04    0.995E-04
RMM:  42    -0.127976891003E+04   -0.21058E-05   -0.30203E-07  1076   0.755E-04    0.405E-04
RMM:  43    -0.127976891164E+04   -0.16112E-05   -0.20507E-07  1026   0.622E-04    0.445E-04
RMM:  44    -0.127976891326E+04   -0.16138E-05   -0.15135E-07   968   0.532E-04    0.238E-04
RMM:  45    -0.127976891447E+04   -0.12156E-05   -0.11211E-07   918   0.474E-04    0.518E-04
RMM:  46    -0.127976891514E+04   -0.67297E-06   -0.75759E-08   820   0.415E-04
   3 F= -.12886384E+04 E0= -.12886290E+04  d E =-.771714E+01  mag=    21.0001
       N       E                     dE             d eps       ncg     rms          rms(c)
DAV:   1    -0.127987182675E+04   -0.10291E+00   -0.46233E+00  2400   0.540E+00    0.212E+00
RMM:   2    -0.127984749926E+04    0.24327E-01   -0.26856E-01  2189   0.127E+00    0.230E+00
RMM:   3    -0.127994840164E+04   -0.10090E+00   -0.97175E-02  2533   0.619E-01    0.953E+00
RMM:   4    -0.127981343655E+04    0.13497E+00   -0.48843E-02  2581   0.444E-01    0.199E+00
RMM:   5    -0.127984358114E+04   -0.30145E-01   -0.47570E-02  2378   0.432E-01    0.294E+00
RMM:   6    -0.127982834290E+04    0.15238E-01   -0.13936E-02  2493   0.244E-01    0.109E+00
RMM:   7    -0.127983038538E+04   -0.20425E-02   -0.72854E-03  2365   0.184E-01    0.101E+00
RMM:   8    -0.127983118929E+04   -0.80392E-03   -0.31611E-03  2550   0.109E-01    0.106E+00
RMM:   9    -0.127982961838E+04    0.15709E-02   -0.19869E-03  2461   0.887E-02    0.731E-01
RMM:  10    -0.127982932879E+04    0.28959E-03   -0.13033E-03  2497   0.723E-02    0.426E-01
RMM:  11    -0.127982922893E+04    0.99855E-04   -0.79035E-04  2486   0.605E-02    0.258E-01
RMM:  12    -0.127982943015E+04   -0.20122E-03   -0.37492E-04  2441   0.415E-02    0.223E-01
RMM:  13    -0.127982938975E+04    0.40400E-04   -0.21195E-04  2382   0.285E-02    0.116E-01
RMM:  14    -0.127982945799E+04   -0.68232E-04   -0.67886E-05  2090   0.179E-02    0.744E-02
RMM:  15    -0.127982948459E+04   -0.26600E-04   -0.33440E-05  1888   0.123E-02    0.784E-02
RMM:  16    -0.127982949188E+04   -0.72927E-05   -0.15244E-05  1678   0.841E-03    0.812E-02
RMM:  17    -0.127982950555E+04   -0.13674E-04   -0.79096E-06  1606   0.609E-03    0.626E-02
RMM:  18    -0.127982954354E+04   -0.37988E-04   -0.11096E-05  1691   0.674E-03    0.427E-02
RMM:  19    -0.127982957601E+04   -0.32465E-04   -0.98173E-06  1622   0.674E-03    0.260E-02
RMM:  20    -0.127982960199E+04   -0.25985E-04   -0.46641E-06  1537   0.476E-03    0.181E-02
RMM:  21    -0.127982961225E+04   -0.10260E-04   -0.25995E-06  1423   0.347E-03    0.160E-02
RMM:  22    -0.127982962973E+04   -0.17483E-04   -0.15222E-06  1360   0.268E-03    0.926E-03
RMM:  23    -0.127982965124E+04   -0.21503E-04   -0.12002E-06  1324   0.205E-03    0.542E-03
RMM:  24    -0.127982967469E+04   -0.23452E-04   -0.12239E-06  1328   0.179E-03    0.459E-03
RMM:  25    -0.127982968880E+04   -0.14116E-04   -0.91158E-07  1312   0.164E-03    0.588E-03
RMM:  26    -0.127982970060E+04   -0.11793E-04   -0.78503E-07  1295   0.146E-03    0.318E-03
RMM:  27    -0.127982972041E+04   -0.19812E-04   -0.10230E-06  1312   0.127E-03    0.200E-03
RMM:  28    -0.127982973283E+04   -0.12414E-04   -0.75341E-07  1193   0.121E-03    0.169E-03
RMM:  29    -0.127982974716E+04   -0.14332E-04   -0.91424E-07  1232   0.108E-03    0.108E-03
RMM:  30    -0.127982976694E+04   -0.19779E-04   -0.14398E-06  1317   0.131E-03    0.111E-03
RMM:  31    -0.127982977654E+04   -0.96031E-05   -0.10878E-06  1201   0.124E-03    0.940E-04
RMM:  32    -0.127982978331E+04   -0.67693E-05   -0.83765E-07  1151   0.112E-03    0.663E-04
RMM:  33    -0.127982979052E+04   -0.72159E-05   -0.84296E-07  1186   0.105E-03    0.517E-04
RMM:  34    -0.127982979376E+04   -0.32359E-05   -0.56804E-07  1114   0.985E-04    0.470E-04
RMM:  35    -0.127982979528E+04   -0.15188E-05   -0.38756E-07  1046   0.783E-04    0.334E-04
RMM:  36    -0.127982979628E+04   -0.10004E-05   -0.25115E-07   944   0.678E-04    0.269E-04
RMM:  37    -0.127982979716E+04   -0.88161E-06   -0.17429E-07   905   0.550E-04
   4 F= -.12887202E+04 E0= -.12887109E+04  d E =-.779889E+01  mag=    21.0000
       N       E                     dE             d eps       ncg     rms          rms(c)
DAV:   1    -0.127987496586E+04   -0.45170E-01   -0.26798E+00  2412   0.411E+00    0.161E+00
RMM:   2    -0.127986063784E+04    0.14328E-01   -0.15526E-01  2186   0.970E-01    0.175E+00
RMM:   3    -0.127991818439E+04   -0.57547E-01   -0.56613E-02  2523   0.472E-01    0.768E+00
RMM:   4    -0.127983790296E+04    0.80281E-01   -0.29293E-02  2574   0.349E-01    0.155E+00
RMM:   5    -0.127985726536E+04   -0.19362E-01   -0.28860E-02  2380   0.341E-01    0.203E+00
RMM:   6    -0.127984979599E+04    0.74694E-02   -0.74116E-03  2499   0.179E-01    0.788E-01
RMM:   7    -0.127985097936E+04   -0.11834E-02   -0.39462E-03  2386   0.134E-01    0.785E-01
RMM:   8    -0.127985125376E+04   -0.27440E-03   -0.17032E-03  2554   0.804E-02    0.793E-01
RMM:   9    -0.127985042280E+04    0.83096E-03   -0.11497E-03  2474   0.667E-02    0.531E-01
RMM:  10    -0.127985024575E+04    0.17705E-03   -0.69725E-04  2492   0.536E-02    0.279E-01
RMM:  11    -0.127985030905E+04   -0.63297E-04   -0.43384E-04  2447   0.452E-02    0.202E-01
RMM:  12    -0.127985036662E+04   -0.57572E-04   -0.18126E-04  2385   0.293E-02    0.139E-01
RMM:  13    -0.127985038552E+04   -0.18903E-04   -0.10960E-04  2240   0.214E-02    0.966E-02
RMM:  14    -0.127985041214E+04   -0.26613E-04   -0.36998E-05  1961   0.132E-02    0.533E-02
RMM:  15    -0.127985043076E+04   -0.18626E-04   -0.16697E-05  1684   0.883E-03    0.541E-02
RMM:  16    -0.127985043581E+04   -0.50538E-05   -0.80444E-06  1593   0.637E-03    0.564E-02
RMM:  17    -0.127985044406E+04   -0.82439E-05   -0.42289E-06  1523   0.465E-03    0.444E-02
RMM:  18    -0.127985046909E+04   -0.25028E-04   -0.60717E-06  1580   0.512E-03    0.311E-02
RMM:  19    -0.127985048943E+04   -0.20347E-04   -0.54178E-06  1529   0.512E-03    0.193E-02
RMM:  20    -0.127985050683E+04   -0.17398E-04   -0.25521E-06  1447   0.360E-03    0.121E-02
RMM:  21    -0.127985051472E+04   -0.78843E-05   -0.15344E-06  1347   0.265E-03    0.131E-02
RMM:  22    -0.127985052639E+04   -0.11672E-04   -0.97581E-07  1312   0.213E-03    0.583E-03
RMM:  23    -0.127985054086E+04   -0.14467E-04   -0.76250E-07  1302   0.157E-03    0.370E-03
RMM:  24    -0.127985055467E+04   -0.13819E-04   -0.70684E-07  1301   0.143E-03    0.348E-03
RMM:  25    -0.127985056376E+04   -0.90910E-05   -0.58349E-07  1293   0.126E-03    0.443E-03
RMM:  26    -0.127985057266E+04   -0.88952E-05   -0.52708E-07  1222   0.117E-03    0.240E-03
RMM:  27    -0.127985058606E+04   -0.13403E-04   -0.67215E-07  1258   0.103E-03    0.151E-03
RMM:  28    -0.127985059392E+04   -0.78588E-05   -0.48985E-07  1111   0.978E-04    0.124E-03
RMM:  29    -0.127985060386E+04   -0.99422E-05   -0.61760E-07  1214   0.874E-04    0.786E-04
RMM:  30    -0.127985061671E+04   -0.12846E-04   -0.82325E-07  1208   0.106E-03    0.826E-04
RMM:  31    -0.127985062293E+04   -0.62234E-05   -0.69095E-07  1171   0.101E-03    0.679E-04
RMM:  32    -0.127985062766E+04   -0.47287E-05   -0.57967E-07  1085   0.914E-04    0.508E-04
RMM:  33    -0.127985063245E+04   -0.47890E-05   -0.56046E-07  1141   0.888E-04    0.343E-04
RMM:  34    -0.127985063455E+04   -0.20970E-05   -0.40348E-07  1087   0.821E-04    0.378E-04
RMM:  35    -0.127985063552E+04   -0.97217E-06   -0.26751E-07   958   0.661E-04
   5 F= -.12887568E+04 E0= -.12887476E+04  d E =-.783553E+01  mag=    21.0000
       N       E                     dE             d eps       ncg     rms          rms(c)
DAV:   1    -0.127985873901E+04   -0.81045E-02   -0.67095E-01  2412   0.206E+00    0.806E-01
RMM:   2    -0.127985499928E+04    0.37397E-02   -0.38740E-02  2186   0.485E-01    0.878E-01
RMM:   3    -0.127986804968E+04   -0.13050E-01   -0.14548E-02  2520   0.240E-01    0.361E+00
RMM:   4    -0.127984932623E+04    0.18723E-01   -0.70531E-03  2578   0.173E-01    0.796E-01
RMM:   5    -0.127985406144E+04   -0.47352E-02   -0.70784E-03  2376   0.168E-01    0.892E-01
RMM:   6    -0.127985250996E+04    0.15515E-02   -0.17449E-03  2504   0.867E-02    0.389E-01
RMM:   7    -0.127985270208E+04   -0.19212E-03   -0.87724E-04  2371   0.626E-02    0.382E-01
RMM:   8    -0.127985270767E+04   -0.55923E-05   -0.41040E-04  2550   0.393E-02    0.343E-01
RMM:   9    -0.127985254787E+04    0.15980E-03   -0.28574E-04  2463   0.330E-02    0.190E-01
RMM:  10    -0.127985256534E+04   -0.17468E-04   -0.15433E-04  2427   0.257E-02    0.133E-01
RMM:  11    -0.127985259614E+04   -0.30803E-04   -0.93170E-05  2237   0.212E-02    0.138E-01
RMM:  12    -0.127985257013E+04    0.26008E-04   -0.31213E-05  1985   0.123E-02    0.574E-02
RMM:  13    -0.127985259283E+04   -0.22696E-04   -0.18263E-05  1701   0.939E-03    0.419E-02
RMM:  14    -0.127985260403E+04   -0.11204E-04   -0.77360E-06  1574   0.678E-03    0.240E-02
RMM:  15    -0.127985260993E+04   -0.59018E-05   -0.30256E-06  1466   0.416E-03    0.172E-02
RMM:  16    -0.127985261306E+04   -0.31316E-05   -0.15398E-06  1387   0.301E-03    0.187E-02
RMM:  17    -0.127985261623E+04   -0.31706E-05   -0.79960E-07  1288   0.221E-03    0.176E-02
RMM:  18    -0.127985262264E+04   -0.64050E-05   -0.86337E-07  1313   0.212E-03    0.129E-02
RMM:  19    -0.127985262886E+04   -0.62162E-05   -0.92448E-07  1328   0.222E-03    0.802E-03
RMM:  20    -0.127985263536E+04   -0.65052E-05   -0.55312E-07  1288   0.167E-03    0.448E-03
RMM:  21    -0.127985263848E+04   -0.31241E-05   -0.36536E-07  1260   0.129E-03    0.571E-03
RMM:  22    -0.127985264153E+04   -0.30450E-05   -0.26782E-07  1248   0.109E-03    0.312E-03
RMM:  23    -0.127985264606E+04   -0.45292E-05   -0.20206E-07  1220   0.775E-04    0.172E-03
RMM:  24    -0.127985265110E+04   -0.50399E-05   -0.20597E-07  1145   0.734E-04    0.228E-03
RMM:  25    -0.127985265359E+04   -0.24880E-05   -0.15777E-07  1024   0.701E-04    0.170E-03
RMM:  26    -0.127985265824E+04   -0.46522E-05   -0.19242E-07  1038   0.594E-04    0.897E-04
RMM:  27    -0.127985266244E+04   -0.41984E-05   -0.18898E-07  1107   0.624E-04    0.681E-04
RMM:  28    -0.127985266516E+04   -0.27218E-05   -0.16864E-07  1022   0.538E-04    0.704E-04
RMM:  29    -0.127985266910E+04   -0.39412E-05   -0.19915E-07  1030   0.565E-04    0.500E-04
RMM:  30    -0.127985267288E+04   -0.37808E-05   -0.24221E-07  1092   0.614E-04    0.394E-04
RMM:  31    -0.127985267499E+04   -0.21115E-05   -0.20238E-07  1048   0.601E-04    0.339E-04
RMM:  32    -0.127985267661E+04   -0.16129E-05   -0.17597E-07   976   0.533E-04    0.243E-04
RMM:  33    -0.127985267801E+04   -0.13998E-05   -0.15456E-07   970   0.523E-04    0.170E-04
RMM:  34    -0.127985267862E+04   -0.60994E-06   -0.11211E-07   879   0.469E-04
   6 F= -.12887667E+04 E0= -.12887576E+04  d E =-.784538E+01  mag=    21.0000
       N       E                     dE             d eps       ncg     rms          rms(c)
DAV:   1    -0.127985308890E+04   -0.41089E-03   -0.16786E-01  2412   0.103E+00    0.403E-01
RMM:   2    -0.127985210171E+04    0.98719E-03   -0.96851E-03  2187   0.242E-01    0.439E-01
RMM:   3    -0.127985512474E+04   -0.30230E-02   -0.36831E-03  2515   0.120E-01    0.162E+00
RMM:   4    -0.127985082586E+04    0.42989E-02   -0.16800E-03  2585   0.836E-02    0.413E-01
RMM:   5    -0.127985191628E+04   -0.10904E-02   -0.16769E-03  2367   0.812E-02    0.431E-01
RMM:   6    -0.127985152804E+04    0.38824E-03   -0.43867E-04  2477   0.432E-02    0.193E-01
RMM:   7    -0.127985156747E+04   -0.39427E-04   -0.20739E-04  2295   0.303E-02    0.178E-01
RMM:   8    -0.127985156829E+04   -0.81881E-06   -0.10408E-04  2463   0.199E-02    0.143E-01
RMM:   9    -0.127985154150E+04    0.26790E-04   -0.70385E-05  2225   0.165E-02    0.714E-02
RMM:  10    -0.127985155662E+04   -0.15119E-04   -0.35361E-05  2065   0.127E-02    0.761E-02
RMM:  11    -0.127985155720E+04   -0.58571E-06   -0.20134E-05  1795   0.101E-02    0.774E-02
RMM:  12    -0.127985154819E+04    0.90096E-05   -0.62464E-06  1581   0.583E-03    0.294E-02
RMM:  13    -0.127985155749E+04   -0.92940E-05   -0.36730E-06  1494   0.462E-03    0.180E-02
RMM:  14    -0.127985156230E+04   -0.48101E-05   -0.18570E-06  1420   0.343E-03    0.138E-02
RMM:  15    -0.127985156387E+04   -0.15689E-05   -0.73344E-07  1260   0.226E-03    0.691E-03
RMM:  16    -0.127985156505E+04   -0.11857E-05   -0.40763E-07  1245   0.162E-03    0.641E-03
RMM:  17    -0.127985156633E+04   -0.12754E-05   -0.23064E-07  1239   0.121E-03    0.680E-03
RMM:  18    -0.127985156805E+04   -0.17205E-05   -0.18083E-07  1242   0.101E-03    0.551E-03
RMM:  19    -0.127985156973E+04   -0.16784E-05   -0.18294E-07  1243   0.100E-03    0.373E-03
RMM:  20    -0.127985157176E+04   -0.20334E-05   -0.13342E-07  1224   0.808E-04    0.195E-03
RMM:  21    -0.127985157283E+04   -0.10665E-05   -0.83358E-08  1116   0.609E-04    0.249E-03
RMM:  22    -0.127985157356E+04   -0.73335E-06   -0.56957E-08   886   0.537E-04
   7 F= -.12887694E+04 E0= -.12887603E+04  d E =-.784813E+01  mag=    21.0000
       N       E                     dE             d eps       ncg     rms          rms(c)
DAV:   1    -0.127985086826E+04    0.70457E-03   -0.41980E-02  2412   0.516E-01    0.201E-01
RMM:   2    -0.127985060105E+04    0.26720E-03   -0.24223E-03  2189   0.121E-01    0.220E-01
RMM:   3    -0.127985134472E+04   -0.74367E-03   -0.92408E-04  2513   0.602E-02    0.762E-01
RMM:   4    -0.127985027812E+04    0.10666E-02   -0.41372E-04  2544   0.413E-02    0.210E-01
RMM:   5    -0.127985057064E+04   -0.29252E-03   -0.40556E-04  2341   0.399E-02    0.213E-01
RMM:   6    -0.127985047083E+04    0.99810E-04   -0.11042E-04  2348   0.217E-02    0.954E-02
RMM:   7    -0.127985048452E+04   -0.13686E-04   -0.50386E-05  1995   0.150E-02    0.845E-02
RMM:   8    -0.127985048675E+04   -0.22320E-05   -0.26387E-05  2001   0.102E-02    0.640E-02
RMM:   9    -0.127985048287E+04    0.38844E-05   -0.17567E-05  1781   0.850E-03    0.322E-02
RMM:  10    -0.127985048918E+04   -0.63178E-05   -0.87417E-06  1614   0.672E-03    0.402E-02
RMM:  11    -0.127985048813E+04    0.10577E-05   -0.48591E-06  1502   0.532E-03    0.387E-02
RMM:  12    -0.127985048684E+04    0.12822E-05   -0.15916E-06  1344   0.323E-03    0.149E-02
RMM:  13    -0.127985049059E+04   -0.37490E-05   -0.96219E-07  1278   0.250E-03    0.828E-03
RMM:  14    -0.127985049287E+04   -0.22780E-05   -0.52381E-07  1253   0.182E-03    0.804E-03
RMM:  15    -0.127985049385E+04   -0.98340E-06   -0.24915E-07  1242   0.127E-03
   8 F= -.12887703E+04 E0= -.12887612E+04  d E =-.784896E+01  mag=    21.0000
       N       E                     dE             d eps       ncg     rms          rms(c)
DAV:   1    -0.127984991145E+04    0.58142E-03   -0.10492E-02  2412   0.258E-01    0.101E-01
RMM:   2    -0.127984984094E+04    0.70514E-04   -0.60528E-04  2190   0.606E-02    0.111E-01
RMM:   3    -0.127985001701E+04   -0.17607E-03   -0.22933E-04  2500   0.303E-02    0.356E-01
RMM:   4    -0.127984975946E+04    0.25756E-03   -0.99692E-05  2307   0.202E-02    0.113E-01
RMM:   5    -0.127984983840E+04   -0.78946E-04   -0.98141E-05  2143   0.199E-02    0.108E-01
RMM:   6    -0.127984981286E+04    0.25542E-04   -0.27781E-05  1895   0.111E-02    0.460E-02
RMM:   7    -0.127984981870E+04   -0.58430E-05   -0.12190E-05  1602   0.765E-03    0.394E-02
RMM:   8    -0.127984982047E+04   -0.17680E-05   -0.65514E-06  1545   0.552E-03    0.299E-02
RMM:   9    -0.127984982061E+04   -0.14286E-06   -0.46933E-06  1477   0.504E-03
   9 F= -.12887705E+04 E0= -.12887615E+04  d E =-.784924E+01  mag=    21.0000
       N       E                     dE             d eps       ncg     rms          rms(c)
DAV:   1    -0.127984947531E+04    0.34516E-03   -0.26099E-03  2412   0.131E-01    0.534E-02
RMM:   2    -0.127984954312E+04   -0.67815E-04   -0.19975E-04  2204   0.342E-02    0.243E-01
RMM:   3    -0.127984943011E+04    0.11301E-03   -0.76514E-05  2348   0.181E-02    0.146E-01
RMM:   4    -0.127984945392E+04   -0.23805E-04   -0.58739E-05  2071   0.173E-02    0.647E-02
RMM:   5    -0.127984945098E+04    0.29410E-05   -0.21443E-05  1864   0.104E-02    0.384E-02
RMM:   6    -0.127984945370E+04   -0.27295E-05   -0.65824E-06  1566   0.556E-03    0.280E-02
RMM:   7    -0.127984945418E+04   -0.47743E-06   -0.37000E-06  1471   0.471E-03
  10 F= -.12887706E+04 E0= -.12887616E+04  d E =-.784934E+01  mag=    21.0000
       N       E                     dE             d eps       ncg     rms          rms(c)
DAV:   1    -0.127984926791E+04    0.18580E-03   -0.63981E-04  2424   0.640E-02    0.290E-02
RMM:   2    -0.127984931518E+04   -0.47275E-04   -0.61007E-05  2171   0.185E-02    0.196E-01
RMM:   3    -0.127984922325E+04    0.91936E-04   -0.33012E-05  1881   0.126E-02    0.617E-02
RMM:   4    -0.127984926573E+04   -0.42482E-04   -0.21450E-05  1732   0.102E-02    0.459E-02
RMM:   5    -0.127984926372E+04    0.20139E-05   -0.65257E-06  1524   0.573E-03    0.208E-02
RMM:   6    -0.127984926501E+04   -0.12926E-05   -0.35087E-06  1454   0.450E-03    0.161E-02
RMM:   7    -0.127984926530E+04   -0.28606E-06   -0.16530E-06  1346   0.313E-03
  11 F= -.12887707E+04 E0= -.12887616E+04  d E =-.784939E+01  mag=    21.0000
       N       E                     dE             d eps       ncg     rms          rms(c)
DAV:   1    -0.127984916736E+04    0.97650E-04   -0.15821E-04  2496   0.327E-02    0.153E-02
RMM:   2    -0.127984918306E+04   -0.15701E-04   -0.17160E-05  1974   0.102E-02    0.107E-01
RMM:   3    -0.127984915281E+04    0.30251E-04   -0.90077E-06  1538   0.676E-03    0.308E-02
RMM:   4    -0.127984916749E+04   -0.14684E-04   -0.55555E-06  1507   0.560E-03    0.180E-02
RMM:   5    -0.127984916785E+04   -0.35728E-06   -0.14843E-06  1346   0.312E-03
  12 F= -.12887707E+04 E0= -.12887616E+04  d E =-.784941E+01  mag=    21.0000
       N       E                     dE             d eps       ncg     rms          rms(c)
DAV:   1    -0.127984911890E+04    0.48597E-04   -0.39600E-05  2532   0.179E-02    0.100E-02
RMM:   2    -0.127984912244E+04   -0.35454E-05   -0.88193E-06  1606   0.737E-03    0.337E-02
RMM:   3    -0.127984911819E+04    0.42498E-05   -0.34338E-06  1458   0.452E-03    0.889E-03
RMM:   4    -0.127984911973E+04   -0.15373E-05   -0.73923E-07  1271   0.210E-03    0.885E-03
RMM:   5    -0.127984912034E+04   -0.61435E-06   -0.54875E-07  1259   0.167E-03
  13 F= -.12887707E+04 E0= -.12887616E+04  d E =-.784942E+01  mag=    21.0000
       N       E                     dE             d eps       ncg     rms          rms(c)
DAV:   1    -0.127984909417E+04    0.25564E-04   -0.10519E-05  2364   0.969E-03    0.678E-03
RMM:   2    -0.127984909850E+04   -0.43320E-05   -0.45216E-06  1494   0.483E-03    0.340E-02
RMM:   3    -0.127984909379E+04    0.47070E-05   -0.20925E-06  1366   0.337E-03    0.523E-03
RMM:   4    -0.127984909591E+04   -0.21193E-05   -0.32626E-07  1236   0.136E-03    0.527E-03
RMM:   5    -0.127984909618E+04   -0.27152E-06   -0.14606E-07  1182   0.944E-04
  14 F= -.12887707E+04 E0= -.12887617E+04  d E =-.784943E+01  mag=    21.0000
       N       E                     dE             d eps       ncg     rms          rms(c)
DAV:   1    -0.127984908371E+04    0.12197E-04   -0.24726E-06  1812   0.507E-03    0.396E-03
RMM:   2    -0.127984908618E+04   -0.24635E-05   -0.17548E-06  1353   0.342E-03    0.288E-02
RMM:   3    -0.127984908337E+04    0.28021E-05   -0.78800E-07  1276   0.213E-03    0.142E-02
RMM:   4    -0.127984908412E+04   -0.74674E-06   -0.36662E-07  1182   0.144E-03    0.268E-03
RMM:   5    -0.127984908485E+04   -0.73319E-06   -0.10677E-07  1083   0.818E-04
  15 F= -.12887707E+04 E0= -.12887617E+04  d E =-.784943E+01  mag=    21.0000
       N       E                     dE             d eps       ncg     rms          rms(c)
DAV:   1    -0.127984907871E+04    0.54082E-05   -0.55265E-07  1620   0.286E-03    0.254E-03
RMM:   2    -0.127984908030E+04   -0.15923E-05   -0.74955E-07  1267   0.217E-03    0.273E-02
RMM:   3    -0.127984907752E+04    0.27843E-05   -0.44764E-07  1183   0.162E-03    0.508E-03
RMM:   4    -0.127984907907E+04   -0.15483E-05   -0.16876E-07  1040   0.984E-04    0.237E-03
RMM:   5    -0.127984907934E+04   -0.27249E-06   -0.30712E-08   802   0.480E-04
  16 F= -.12887707E+04 E0= -.12887617E+04  d E =-.784944E+01  mag=    21.0000
       N       E                     dE             d eps       ncg     rms          rms(c)
DAV:   1    -0.127984907633E+04    0.27430E-05   -0.13241E-07  1524   0.140E-03    0.142E-03
RMM:   2    -0.127984907693E+04   -0.60004E-06   -0.21008E-07  1144   0.122E-03    0.138E-02
RMM:   3    -0.127984907606E+04    0.86447E-06   -0.13169E-07  1021   0.894E-04    0.317E-03
RMM:   4    -0.127984907667E+04   -0.60633E-06   -0.52486E-08   805   0.592E-04    0.981E-04
RMM:   5    -0.127984907680E+04   -0.13583E-06   -0.88622E-09   581   0.332E-04
  17 F= -.12887707E+04 E0= -.12887617E+04  d E =-.784944E+01  mag=    21.0000
       N       E                     dE             d eps       ncg     rms          rms(c)
DAV:   1    -0.127984907530E+04    0.13698E-05   -0.35890E-08  1404   0.760E-04    0.632E-04
RMM:   2    -0.127984907558E+04   -0.28129E-06   -0.42812E-08   990   0.581E-04    0.599E-03
RMM:   3    -0.127984907539E+04    0.18887E-06   -0.23636E-08   628   0.420E-04    0.144E-03
RMM:   4    -0.127984907556E+04   -0.17142E-06   -0.10173E-08   573   0.324E-04    0.586E-04
RMM:   5    -0.127984907564E+04   -0.79126E-07   -0.14336E-09   426   0.239E-04
  18 F= -.12887707E+04 E0= -.12887617E+04  d E =-.784944E+01  mag=    21.0000
       N       E                     dE             d eps       ncg     rms          rms(c)
DAV:   1    -0.127984907493E+04    0.63174E-06   -0.74871E-09  1428   0.427E-04    0.359E-04
RMM:   2    -0.127984907510E+04   -0.16795E-06   -0.13728E-08   691   0.367E-04    0.244E-03
RMM:   3    -0.127984907508E+04    0.21209E-07   -0.60235E-09   501   0.284E-04    0.131E-03
RMM:   4    -0.127984907512E+04   -0.38948E-07   -0.28861E-09   460   0.253E-04    0.287E-04
RMM:   5    -0.127984907516E+04   -0.47396E-07   -0.29428E-10   362   0.215E-04
  19 F= -.12887707E+04 E0= -.12887617E+04  d E =-.784944E+01  mag=    21.0000
       N       E                     dE             d eps       ncg     rms          rms(c)
DAV:   1    -0.127984907440E+04    0.71140E-06   -0.64900E-09  1428   0.340E-04    0.214E-04
RMM:   2    -0.127984907452E+04   -0.11740E-06   -0.40330E-09   545   0.258E-04    0.702E-04
RMM:   3    -0.127984907454E+04   -0.16364E-07   -0.11725E-09   400   0.216E-04    0.426E-04
RMM:   4    -0.127984907456E+04   -0.22272E-07   -0.24207E-10   327   0.203E-04    0.490E-04
RMM:   5    -0.127984907457E+04   -0.13497E-07   -0.47100E-11   303   0.200E-04
  20 F= -.12887707E+04 E0= -.12887617E+04  d E =-.784944E+01  mag=    21.0000
       N       E                     dE             d eps       ncg     rms          rms(c)
DAV:   1    -0.127984907460E+04   -0.38992E-07    0.36425E-09  1416   0.215E-04    0.117E-04
RMM:   2    -0.127984907468E+04   -0.78238E-07   -0.41651E-10   370   0.150E-04    0.413E-04
RMM:   3    -0.127984907469E+04   -0.11059E-07   -0.68657E-11   313   0.129E-04    0.289E-04
RMM:   4    -0.127984907470E+04   -0.85274E-08   -0.51366E-11   296   0.128E-04    0.187E-04
RMM:   5    -0.127984907474E+04   -0.38621E-07   -0.34601E-11   311   0.127E-04
  21 F= -.12887707E+04 E0= -.12887617E+04  d E =-.784944E+01  mag=    21.0000
       N       E                     dE             d eps       ncg     rms          rms(c)
DAV:   1    -0.127984907477E+04   -0.69296E-07    0.48615E-09  1452   0.146E-04    0.100E-04
RMM:   2    -0.127984907482E+04   -0.49535E-07   -0.24367E-10   357   0.132E-04    0.422E-04
RMM:   3    -0.127984907482E+04   -0.46130E-08   -0.10359E-10   291   0.119E-04    0.269E-04
RMM:   4    -0.127984907483E+04   -0.60827E-08   -0.31388E-11   276   0.113E-04    0.172E-04
RMM:   5    -0.127984907485E+04   -0.24665E-07   -0.43068E-11   297   0.116E-04
  22 F= -.12887707E+04 E0= -.12887617E+04  d E =-.784944E+01  mag=    21.0000
       N       E                     dE             d eps       ncg     rms          rms(c)
DAV:   1    -0.127984907487E+04   -0.47767E-07    0.59565E-09  1476   0.142E-04    0.127E-04
RMM:   2    -0.127984907491E+04   -0.30923E-07   -0.45423E-10   357   0.124E-04    0.444E-04
RMM:   3    -0.127984907491E+04   -0.33760E-08    0.00000E+00   265   0.997E-05    0.428E-04
RMM:   4    -0.127984907491E+04   -0.29177E-08   -0.85407E-11   269   0.965E-05    0.171E-04
RMM:   5    -0.127984907492E+04   -0.13250E-07    0.00000E+00   278   0.978E-05
  23 F= -.12887707E+04 E0= -.12887617E+04  d E =-.784944E+01  mag=    21.0000
       N       E                     dE             d eps       ncg     rms          rms(c)
DAV:   1    -0.127984907493E+04   -0.20460E-07    0.63469E-09  1428   0.108E-04    0.901E-05
RMM:   2    -0.127984907495E+04   -0.20285E-07   -0.12024E-11   319   0.975E-05    0.294E-04
RMM:   3    -0.127984907495E+04   -0.25902E-08   -0.70388E-12   247   0.807E-05    0.846E-05
RMM:   4    -0.127984907496E+04   -0.77343E-08    0.00000E+00   272   0.824E-05    0.258E-04
RMM:   5    -0.127984907497E+04   -0.26630E-08    0.00000E+00   257   0.829E-05
  24 F= -.12887707E+04 E0= -.12887617E+04  d E =-.784944E+01  mag=    21.0000
       N       E                     dE             d eps       ncg     rms          rms(c)
DAV:   1    -0.127984907497E+04   -0.70140E-08    0.73197E-09  1380   0.984E-05    0.773E-05
RMM:   2    -0.127984907498E+04   -0.13642E-07    0.00000E+00   295   0.743E-05    0.176E-04
RMM:   3    -0.127984907499E+04   -0.22774E-08    0.00000E+00   230   0.670E-05    0.199E-04
RMM:   4    -0.127984907499E+04   -0.21246E-08    0.00000E+00   235   0.622E-05    0.197E-04
RMM:   5    -0.127984907499E+04   -0.49622E-08    0.00000E+00   256   0.687E-05
  25 F= -.12887707E+04 E0= -.12887617E+04  d E =-.784944E+01  mag=    21.0000
       N       E                     dE             d eps       ncg     rms          rms(c)
DAV:   1    -0.127984907500E+04   -0.74651E-08    0.77876E-09  1356   0.812E-05    0.771E-05
RMM:   2    -0.127984907500E+04   -0.87603E-08    0.00000E+00   274   0.732E-05    0.227E-04
RMM:   3    -0.127984907500E+04   -0.79308E-09    0.00000E+00   211   0.587E-05    0.727E-05
RMM:   4    -0.127984907501E+04   -0.38999E-08    0.00000E+00   244   0.590E-05    0.161E-04
RMM:   5    -0.127984907501E+04   -0.61846E-09    0.00000E+00   241   0.615E-05
  26 F= -.12887707E+04 E0= -.12887617E+04  d E =-.784944E+01  mag=    21.0000
       N       E                     dE             d eps       ncg     rms          rms(c)
DAV:   1    -0.127984907501E+04   -0.23356E-08    0.80846E-09  1320   0.744E-05    0.653E-05
RMM:   2    -0.127984907502E+04   -0.55225E-08    0.00000E+00   245   0.583E-05    0.271E-04
RMM:   3    -0.127984907502E+04   -0.11642E-09    0.00000E+00   179   0.495E-05    0.196E-04
RMM:   4    -0.127984907502E+04   -0.11642E-08    0.00000E+00   194   0.487E-05    0.825E-05
RMM:   5    -0.127984907502E+04   -0.25539E-08    0.00000E+00   222   0.495E-05
  27 F= -.12887707E+04 E0= -.12887617E+04  d E =-.784944E+01  mag=    21.0000
       N       E                     dE             d eps       ncg     rms          rms(c)
DAV:   1    -0.127984907502E+04   -0.30559E-08    0.83982E-09  1308   0.606E-05    0.558E-05
RMM:   2    -0.127984907502E+04   -0.39508E-08    0.00000E+00   214   0.505E-05    0.149E-04
RMM:   3    -0.127984907503E+04   -0.39290E-09    0.00000E+00   178   0.423E-05    0.136E-04
RMM:   4    -0.127984907503E+04   -0.52387E-09    0.00000E+00   177   0.401E-05    0.144E-04
RMM:   5    -0.127984907503E+04   -0.10041E-08    0.00000E+00   201   0.435E-05
  28 F= -.12887707E+04 E0= -.12887617E+04  d E =-.784944E+01  mag=    21.0000
       N       E                     dE             d eps       ncg     rms          rms(c)
DAV:   1    -0.127984907503E+04   -0.14988E-08    0.86555E-09  1296   0.524E-05    0.479E-05
RMM:   2    -0.127984907503E+04   -0.28886E-08    0.00000E+00   199   0.404E-05    0.120E-04
RMM:   3    -0.127984907503E+04   -0.33469E-09    0.00000E+00   169   0.352E-05    0.151E-04
RMM:   4    -0.127984907503E+04   -0.26193E-09    0.00000E+00   167   0.336E-05    0.980E-05
RMM:   5    -0.127984907503E+04   -0.98225E-09    0.00000E+00   177   0.356E-05
  29 F= -.12887707E+04 E0= -.12887617E+04  d E =-.784944E+01  mag=    21.0000
       N       E                     dE             d eps       ncg     rms          rms(c)
DAV:   1    -0.127984907503E+04   -0.80763E-09    0.89635E-09  1296   0.430E-05    0.413E-05
RMM:   2    -0.127984907503E+04   -0.20373E-08    0.00000E+00   180   0.363E-05    0.129E-04
RMM:   3    -0.127984907503E+04    0.29104E-10    0.00000E+00   160   0.315E-05    0.143E-04
RMM:   4    -0.127984907503E+04   -0.33469E-09    0.00000E+00   159   0.293E-05    0.623E-05
RMM:   5    -0.127984907503E+04   -0.80763E-09    0.00000E+00   162   0.311E-05
  30 F= -.12887707E+04 E0= -.12887617E+04  d E =-.784944E+01  mag=    21.0000
       N       E                     dE             d eps       ncg     rms          rms(c)
DAV:   1    -0.127984907503E+04   -0.18917E-09    0.89861E-09  1308   0.367E-05    0.368E-05
RMM:   2    -0.127984907504E+04   -0.18263E-08    0.00000E+00   158   0.298E-05    0.878E-05
RMM:   3    -0.127984907504E+04    0.26921E-09    0.00000E+00   150   0.236E-05    0.576E-05
RMM:   4    -0.127984907504E+04   -0.78580E-09    0.00000E+00   149   0.244E-05    0.124E-04
RMM:   5    -0.127984907504E+04   -0.14552E-09    0.00000E+00   155   0.250E-05
  31 F= -.12887707E+04 E0= -.12887617E+04  d E =-.784944E+01  mag=    21.0000
       N       E                     dE             d eps       ncg     rms          rms(c)
DAV:   1    -0.127984907503E+04    0.16225E-08    0.92805E-09  1248   0.323E-05    0.291E-05
RMM:   2    -0.127984907504E+04   -0.27503E-08    0.00000E+00   162   0.250E-05    0.764E-05
RMM:   3    -0.127984907504E+04   -0.10914E-09    0.00000E+00   148   0.211E-05    0.106E-04
RMM:   4    -0.127984907504E+04   -0.50932E-10    0.00000E+00   148   0.207E-05    0.489E-05
RMM:   5    -0.127984907504E+04   -0.41473E-09    0.00000E+00   151   0.215E-05
  32 F= -.12887707E+04 E0= -.12887617E+04  d E =-.784944E+01  mag=    21.0000
       N       E                     dE             d eps       ncg     rms          rms(c)
DAV:   1    -0.127984907504E+04    0.10186E-09    0.93044E-09  1140   0.255E-05    0.267E-05
RMM:   2    -0.127984907504E+04   -0.10987E-08    0.00000E+00   150   0.216E-05    0.685E-05
RMM:   3    -0.127984907504E+04    0.00000E+00    0.00000E+00   145   0.173E-05    0.670E-05
RMM:   4    -0.127984907504E+04   -0.14552E-10    0.00000E+00   142   0.177E-05    0.692E-05
RMM:   5    -0.127984907504E+04   -0.26193E-09    0.00000E+00   143   0.178E-05
  33 F= -.12887707E+04 E0= -.12887617E+04  d E =-.784944E+01  mag=    21.0000
       N       E                     dE             d eps       ncg     rms          rms(c)
DAV:   1    -0.127984907504E+04    0.17317E-08    0.92244E-09  1188   0.232E-05    0.217E-05
RMM:   2    -0.127984907504E+04   -0.23065E-08    0.00000E+00   155   0.177E-05    0.653E-05
RMM:   3    -0.127984907504E+04    0.16735E-09    0.00000E+00   135   0.153E-05    0.764E-05
RMM:   4    -0.127984907504E+04   -0.22555E-09    0.00000E+00   132   0.141E-05    0.322E-05
RMM:   5    -0.127984907504E+04   -0.21828E-09    0.00000E+00   134   0.152E-05
  34 F= -.12887707E+04 E0= -.12887617E+04  d E =-.784944E+01  mag=    21.0000
       N       E                     dE             d eps       ncg     rms          rms(c)
DAV:   1    -0.127984907504E+04    0.32014E-09    0.93809E-09  1152   0.176E-05    0.196E-05
RMM:   2    -0.127984907504E+04   -0.71304E-09    0.00000E+00   148   0.158E-05    0.576E-05
RMM:   3    -0.127984907504E+04   -0.20373E-09    0.00000E+00   124   0.128E-05    0.533E-05
RMM:   4    -0.127984907504E+04   -0.65484E-10    0.00000E+00   113   0.123E-05    0.433E-05
RMM:   5    -0.127984907504E+04   -0.65484E-10    0.00000E+00   116   0.127E-05
  35 F= -.12887707E+04 E0= -.12887617E+04  d E =-.784944E+01  mag=    21.0000
       N       E                     dE             d eps       ncg     rms          rms(c)
DAV:   1    -0.127984907504E+04    0.71304E-09    0.95083E-09  1152   0.167E-05    0.162E-05
RMM:   2    -0.127984907504E+04   -0.98225E-09    0.00000E+00   137   0.124E-05    0.616E-05
RMM:   3    -0.127984907504E+04    0.13824E-09    0.00000E+00   110   0.110E-05    0.480E-05
RMM:   4    -0.127984907504E+04   -0.72760E-11    0.00000E+00   105   0.952E-06    0.215E-05
RMM:   5    -0.127984907504E+04   -0.87311E-10    0.00000E+00   108   0.105E-05
  36 F= -.12887707E+04 E0= -.12887617E+04  d E =-.784944E+01  mag=    21.0000
       N       E                     dE             d eps       ncg     rms          rms(c)
DAV:   1    -0.127984907504E+04    0.12878E-08    0.92536E-09  1128   0.122E-05    0.148E-05
RMM:   2    -0.127984907504E+04   -0.15425E-08    0.00000E+00   134   0.121E-05    0.470E-05
RMM:   3    -0.127984907504E+04    0.50932E-10    0.00000E+00   102   0.896E-06    0.131E-05
RMM:   4    -0.127984907504E+04   -0.16735E-09    0.00000E+00    92   0.896E-06    0.305E-05
RMM:   5    -0.127984907504E+04    0.58208E-10    0.00000E+00    93   0.924E-06
  37 F= -.12887707E+04 E0= -.12887617E+04  d E =-.784944E+01  mag=    21.0000
       N       E                     dE             d eps       ncg     rms          rms(c)
DAV:   1    -0.127984907504E+04    0.31287E-09    0.94882E-09  1128   0.121E-05    0.114E-05
RMM:   2    -0.127984907504E+04   -0.38563E-09    0.00000E+00   125   0.826E-06    0.267E-05
RMM:   3    -0.127984907504E+04    0.87311E-10    0.00000E+00    90   0.673E-06    0.452E-05
RMM:   4    -0.127984907504E+04   -0.18190E-09    0.00000E+00    88   0.708E-06    0.175E-05
RMM:   5    -0.127984907504E+04    0.13097E-09    0.00000E+00    84   0.708E-06
  38 F= -.12887707E+04 E0= -.12887617E+04  d E =-.784944E+01  mag=    21.0000
       N       E                     dE             d eps       ncg     rms          rms(c)
DAV:   1    -0.127984907504E+04    0.72032E-09    0.92620E-09  1128   0.899E-06    0.100E-05
RMM:   2    -0.127984907504E+04   -0.61118E-09    0.00000E+00   109   0.810E-06    0.301E-05
RMM:   3    -0.127984907504E+04   -0.72760E-10    0.00000E+00    83   0.605E-06    0.849E-06
RMM:   4    -0.127984907504E+04   -0.36380E-10    0.00000E+00    72   0.604E-06    0.140E-05
RMM:   5    -0.127984907504E+04    0.00000E+00    0.00000E+00    70   0.634E-06
  39 F= -.12887707E+04 E0= -.12887617E+04  d E =-.784944E+01  mag=    21.0000
       N       E                     dE             d eps       ncg     rms          rms(c)
DAV:   1    -0.127984907504E+04    0.10841E-08    0.94870E-09  1128   0.760E-06    0.813E-06
RMM:   2    -0.127984907504E+04   -0.10259E-08    0.00000E+00   102   0.582E-06    0.239E-05
RMM:   3    -0.127984907504E+04   -0.24738E-09    0.00000E+00    78   0.483E-06    0.281E-05
RMM:   4    -0.127984907504E+04    0.58208E-10    0.00000E+00    77   0.508E-06    0.118E-05
RMM:   5    -0.127984907504E+04    0.10914E-09    0.00000E+00    67   0.510E-06
  40 F= -.12887707E+04 E0= -.12887617E+04  d E =-.784944E+01  mag=    21.0000
       N       E                     dE             d eps       ncg     rms          rms(c)
DAV:   1    -0.127984907504E+04    0.17972E-08    0.92957E-09  1152   0.651E-06    0.710E-06
RMM:   2    -0.127984907504E+04   -0.18699E-08    0.00000E+00    83   0.553E-06    0.237E-05
RMM:   3    -0.127984907504E+04   -0.29104E-10    0.00000E+00    65   0.404E-06    0.107E-05
RMM:   4    -0.127984907504E+04    0.11642E-09    0.00000E+00    57   0.418E-06    0.237E-05
RMM:   5    -0.127984907504E+04   -0.18190E-09    0.00000E+00    58   0.409E-06
  41 F= -.12887707E+04 E0= -.12887617E+04  d E =-.784944E+01  mag=    21.0000
       N       E                     dE             d eps       ncg     rms          rms(c)
DAV:   1    -0.127984907504E+04    0.24011E-09    0.95010E-09  1128   0.565E-06    0.504E-06
RMM:   2    -0.127984907504E+04   -0.53842E-09    0.00000E+00    70   0.371E-06    0.183E-05
RMM:   3    -0.127984907504E+04    0.87311E-10    0.00000E+00    53   0.364E-06    0.158E-05
RMM:   4    -0.127984907504E+04   -0.15280E-09    0.00000E+00    52   0.303E-06    0.626E-06
RMM:   5    -0.127984907504E+04    0.16735E-09    0.00000E+00    48   0.337E-06
  42 F= -.12887707E+04 E0= -.12887617E+04  d E =-.784944E+01  mag=    21.0000
       N       E                     dE             d eps       ncg     rms          rms(c)
DAV:   1    -0.127984907504E+04    0.17171E-08    0.96677E-09  1152   0.411E-06    0.603E-06
RMM:   2    -0.127984907504E+04   -0.17899E-08    0.00000E+00    69   0.461E-06    0.228E-05
RMM:   3    -0.127984907504E+04    0.19645E-09    0.00000E+00    47   0.316E-06    0.573E-06
RMM:   4    -0.127984907504E+04   -0.13097E-09    0.00000E+00    42   0.309E-06    0.190E-05
RMM:   5    -0.127984907504E+04    0.20373E-09    0.00000E+00    43   0.311E-06
  43 F= -.12887707E+04 E0= -.12887617E+04  d E =-.784944E+01  mag=    21.0000
       N       E                     dE             d eps       ncg     rms          rms(c)
DAV:   1    -0.127984907504E+04    0.74215E-09    0.95085E-09  1104   0.456E-06    0.411E-06
RMM:   2    -0.127984907504E+04   -0.77125E-09    0.00000E+00    60   0.279E-06    0.888E-06
RMM:   3    -0.127984907504E+04   -0.72760E-11    0.00000E+00    33   0.234E-06    0.141E-05
RMM:   4    -0.127984907504E+04    0.00000E+00    0.00000E+00    35   0.217E-06    0.901E-06
RMM:   5    -0.127984907504E+04    0.14552E-10    0.00000E+00    28   0.245E-06
  44 F= -.12887707E+04 E0= -.12887617E+04  d E =-.784944E+01  mag=    21.0000
       N       E                     dE             d eps       ncg     rms          rms(c)
DAV:   1    -0.127984907504E+04    0.17390E-08    0.95140E-09  1116   0.314E-06    0.370E-06
RMM:   2    -0.127984907504E+04   -0.18117E-08    0.00000E+00    55   0.288E-06    0.133E-05
RMM:   3    -0.127984907504E+04   -0.29104E-10    0.00000E+00    30   0.234E-06    0.117E-05
RMM:   4    -0.127984907504E+04    0.14552E-09    0.00000E+00    27   0.206E-06    0.493E-06
RMM:   5    -0.127984907504E+04    0.36380E-10    0.00000E+00    17   0.215E-06
  45 F= -.12887707E+04 E0= -.12887617E+04  d E =-.784944E+01  mag=    21.0000
       N       E                     dE             d eps       ncg     rms          rms(c)
DAV:   1    -0.127984907504E+04    0.70577E-09    0.93223E-09  1104   0.287E-06    0.314E-06
RMM:   2    -0.127984907504E+04   -0.76398E-09    0.00000E+00    53   0.217E-06    0.184E-05
RMM:   3    -0.127984907504E+04    0.00000E+00    0.00000E+00    23   0.199E-06    0.560E-06
RMM:   4    -0.127984907504E+04    0.18190E-09    0.00000E+00    15   0.154E-06    0.440E-06
RMM:   5    -0.127984907504E+04   -0.10186E-09    0.00000E+00    13   0.177E-06
  46 F= -.12887707E+04 E0= -.12887617E+04  d E =-.784944E+01  mag=    21.0000
       N       E                     dE             d eps       ncg     rms          rms(c)
DAV:   1    -0.127984907504E+04    0.77125E-09    0.95541E-09  1116   0.211E-06    0.262E-06
RMM:   2    -0.127984907504E+04   -0.87311E-09    0.00000E+00    47   0.204E-06    0.871E-06
RMM:   3    -0.127984907504E+04   -0.15280E-09    0.00000E+00    15   0.156E-06    0.698E-06
RMM:   4    -0.127984907504E+04    0.21828E-10    0.00000E+00    15   0.143E-06    0.484E-06
RMM:   5    -0.127984907504E+04    0.21828E-10    0.00000E+00    12   0.151E-06
  47 F= -.12887707E+04 E0= -.12887617E+04  d E =-.784944E+01  mag=    21.0000
       N       E                     dE             d eps       ncg     rms          rms(c)
DAV:   1    -0.127984907504E+04    0.13752E-08    0.93954E-09  1116   0.203E-06    0.203E-06
RMM:   2    -0.127984907504E+04   -0.13533E-08    0.00000E+00    34   0.138E-06    0.430E-06
RMM:   3    -0.127984907504E+04    0.13097E-09    0.00000E+00     9   0.113E-06    0.733E-06
RMM:   4    -0.127984907504E+04   -0.14552E-10    0.00000E+00     9   0.106E-06    0.386E-06
RMM:   5    -0.127984907504E+04    0.00000E+00    0.00000E+00     8   0.119E-06
  48 F= -.12887707E+04 E0= -.12887617E+04  d E =-.784944E+01  mag=    21.0000
       N       E                     dE             d eps       ncg     rms          rms(c)
DAV:   1    -0.127984907504E+04    0.57480E-09    0.94568E-09  1080   0.148E-06    0.182E-06
RMM:   2    -0.127984907504E+04   -0.48021E-09    0.00000E+00    31   0.142E-06    0.638E-06
RMM:   3    -0.127984907504E+04   -0.25466E-09    0.00000E+00    11   0.109E-06    0.435E-06
RMM:   4    -0.127984907504E+04    0.17462E-09    0.00000E+00     7   0.101E-06    0.379E-06
RMM:   5    -0.127984907504E+04   -0.80036E-10    0.00000E+00     5   0.104E-06
  49 F= -.12887707E+04 E0= -.12887617E+04  d E =-.784944E+01  mag=    21.0000
       N       E                     dE             d eps       ncg     rms          rms(c)
DAV:   1    -0.127984907504E+04    0.11933E-08    0.94490E-09  1080   0.142E-06    0.143E-06
RMM:   2    -0.127984907504E+04   -0.12587E-08    0.00000E+00    24   0.963E-07    0.505E-06
RMM:   3    -0.127984907504E+04    0.58208E-10    0.00000E+00     9   0.856E-07    0.433E-06
RMM:   4    -0.127984907504E+04   -0.14552E-10    0.00000E+00     5   0.741E-07    0.196E-06
RMM:   5    -0.127984907504E+04   -0.65484E-10    0.00000E+00     2   0.819E-07
  50 F= -.12887707E+04 E0= -.12887617E+04  d E =-.784944E+01  mag=    21.0000
       N       E                     dE             d eps       ncg     rms          rms(c)
DAV:   1    -0.127984907504E+04    0.14188E-08    0.94729E-09  1080   0.101E-06    0.145E-06
RMM:   2    -0.127984907504E+04   -0.15643E-08    0.00000E+00    19   0.111E-06    0.556E-06
RMM:   3    -0.127984907504E+04    0.65484E-10    0.00000E+00     3   0.768E-07    0.264E-06
RMM:   4    -0.127984907504E+04    0.72760E-11    0.00000E+00     3   0.733E-07    0.340E-06
RMM:   5    -0.127984907504E+04    0.10186E-09    0.00000E+00     2   0.748E-07
  51 F= -.12887707E+04 E0= -.12887617E+04  d E =-.784944E+01  mag=    21.0000
       N       E                     dE             d eps       ncg     rms          rms(c)
DAV:   1    -0.127984907504E+04    0.95315E-09    0.93978E-09  1080   0.104E-06    0.981E-07
RMM:   2    -0.127984907504E+04   -0.93132E-09    0.00000E+00    10   0.604E-07    0.167E-06
RMM:   3    -0.127984907504E+04   -0.14552E-10    0.00000E+00     2   0.539E-07    0.404E-06
RMM:   4    -0.127984907504E+04    0.72760E-11    0.00000E+00     2   0.493E-07    0.159E-06
RMM:   5    -0.127984907504E+04   -0.19645E-09    0.00000E+00     2   0.553E-07
  52 F= -.12887707E+04 E0= -.12887617E+04  d E =-.784944E+01  mag=    21.0000
       N       E                     dE             d eps       ncg     rms          rms(c)
DAV:   1    -0.127984907504E+04    0.72760E-10    0.95303E-09  1080   0.705E-07    0.109E-06
RMM:   2    -0.127984907504E+04    0.21828E-10    0.00000E+00    10   0.814E-07    0.432E-06
RMM:   3    -0.127984907504E+04   -0.18917E-09    0.00000E+00     3   0.543E-07    0.164E-06
RMM:   4    -0.127984907504E+04   -0.11642E-09    0.00000E+00     2   0.527E-07    0.283E-06
RMM:   5    -0.127984907504E+04    0.16007E-09    0.00000E+00     2   0.529E-07
  53 F= -.12887707E+04 E0= -.12887617E+04  d E =-.784944E+01  mag=    21.0000
       N       E                     dE             d eps       ncg     rms          rms(c)
DAV:   1    -0.127984907504E+04    0.13242E-08    0.92709E-09  1080   0.754E-07    0.724E-07
RMM:   2    -0.127984907504E+04   -0.10914E-08    0.00000E+00     6   0.434E-07    0.118E-06
RMM:   3    -0.127984907504E+04    0.19645E-09    0.00000E+00     3   0.386E-07    0.273E-06
RMM:   4    -0.127984907504E+04   -0.18190E-09    0.00000E+00     2   0.353E-07    0.143E-06
RMM:   5    -0.127984907504E+04   -0.58208E-10    0.00000E+00     2   0.401E-07
  54 F= -.12887707E+04 E0= -.12887617E+04  d E =-.784944E+01  mag=    21.0000
       N       E                     dE             d eps       ncg     rms          rms(c)
DAV:   1    -0.127984907504E+04    0.42201E-09    0.93671E-09  1080   0.504E-07    0.697E-07
RMM:   2    -0.127984907504E+04   -0.34925E-09    0.00000E+00     5   0.530E-07    0.237E-06
RMM:   3    -0.127984907504E+04   -0.21828E-10    0.00000E+00     3   0.368E-07    0.599E-07
RMM:   4    -0.127984907504E+04   -0.94587E-10    0.00000E+00     2   0.358E-07    0.142E-06
RMM:   5    -0.127984907504E+04    0.80036E-10    0.00000E+00     2   0.375E-07
  55 F= -.12887707E+04 E0= -.12887617E+04  d E =-.784944E+01  mag=    21.0000
       N       E                     dE             d eps       ncg     rms          rms(c)
DAV:   1    -0.127984907504E+04    0.12296E-08    0.94306E-09  1080   0.516E-07    0.538E-07
RMM:   2    -0.127984907504E+04   -0.10987E-08    0.00000E+00     5   0.333E-07    0.112E-06
RMM:   3    -0.127984907504E+04   -0.87311E-10    0.00000E+00     3   0.266E-07    0.214E-06
RMM:   4    -0.127984907504E+04    0.29104E-10    0.00000E+00     2   0.288E-07    0.917E-07
RMM:   5    -0.127984907504E+04   -0.50932E-10    0.00000E+00     2   0.285E-07
  56 F= -.12887707E+04 E0= -.12887617E+04  d E =-.784944E+01  mag=    21.0000
       N       E                     dE             d eps       ncg     rms          rms(c)
DAV:   1    -0.127984907504E+04    0.11787E-08    0.94290E-09  1080   0.383E-07    0.460E-07
RMM:   2    -0.127984907504E+04   -0.12224E-08    0.00000E+00     5   0.344E-07    0.132E-06
RMM:   3    -0.127984907504E+04    0.00000E+00    0.00000E+00     3   0.243E-07    0.400E-07
RMM:   4    -0.127984907504E+04    0.72760E-11    0.00000E+00     2   0.250E-07    0.612E-07
RMM:   5    -0.127984907504E+04   -0.43656E-10    0.00000E+00     2   0.255E-07
  57 F= -.12887707E+04 E0= -.12887617E+04  d E =-.784944E+01  mag=    21.0000
       N       E                     dE             d eps       ncg     rms          rms(c)
DAV:   1    -0.127984907504E+04    0.12515E-08    0.92406E-09  1080   0.321E-07    0.420E-07
RMM:   2    -0.127984907504E+04   -0.12878E-08    0.00000E+00     4   0.261E-07    0.223E-06
RMM:   3    -0.127984907504E+04    0.14552E-10    0.00000E+00     3   0.218E-07    0.708E-07
RMM:   4    -0.127984907504E+04   -0.43656E-10    0.00000E+00     2   0.192E-07    0.581E-07
RMM:   5    -0.127984907504E+04   -0.10914E-09    0.00000E+00     2   0.201E-07
  58 F= -.12887707E+04 E0= -.12887617E+04  d E =-.784944E+01  mag=    21.0000
       N       E                     dE             d eps       ncg     rms          rms(c)
DAV:   1    -0.127984907504E+04    0.48021E-09    0.93801E-09  1080   0.292E-07    0.354E-07
RMM:   2    -0.127984907504E+04   -0.48021E-09    0.00000E+00     4   0.246E-07    0.223E-06
RMM:   3    -0.127984907504E+04   -0.94587E-10    0.00000E+00     2   0.219E-07    0.958E-07
RMM:   4    -0.127984907504E+04    0.36380E-10    0.00000E+00     2   0.157E-07    0.292E-07
RMM:   5    -0.127984907504E+04    0.29104E-10    0.00000E+00     2   0.169E-07
  59 F= -.12887707E+04 E0= -.12887617E+04  d E =-.784944E+01  mag=    21.0000
       N       E                     dE             d eps       ncg     rms          rms(c)
DAV:   1    -0.127984907504E+04    0.94587E-09    0.93986E-09  1080   0.223E-07    0.244E-07
RMM:   2    -0.127984907504E+04   -0.77853E-09    0.00000E+00     5   0.166E-07    0.697E-07
RMM:   3    -0.127984907504E+04   -0.17462E-09    0.00000E+00     2   0.148E-07    0.815E-07
RMM:   4    -0.127984907504E+04    0.14552E-10    0.00000E+00     2   0.132E-07    0.450E-07
RMM:   5    -0.127984907504E+04   -0.29104E-10    0.00000E+00     2   0.142E-07
  60 F= -.12887707E+04 E0= -.12887617E+04  d E =-.784944E+01  mag=    21.0000
       N       E                     dE             d eps       ncg     rms          rms(c)
DAV:   1    -0.127984907504E+04    0.15280E-08    0.93799E-09  1080   0.184E-07    0.218E-07
RMM:   2    -0.127984907504E+04   -0.16007E-08    0.00000E+00     4   0.151E-07    0.455E-07
RMM:   3    -0.127984907504E+04    0.16007E-09    0.00000E+00     2   0.112E-07    0.460E-07
RMM:   4    -0.127984907504E+04    0.21828E-10    0.00000E+00     2   0.118E-07    0.670E-07
RMM:   5    -0.127984907504E+04   -0.43656E-10    0.00000E+00     2   0.126E-07
  61 F= -.12887707E+04 E0= -.12887617E+04  d E =-.784944E+01  mag=    21.0000
       N       E                     dE             d eps       ncg     rms          rms(c)
DAV:   1    -0.127984907504E+04    0.14115E-08    0.94160E-09  1080   0.159E-07    0.194E-07
RMM:   2    -0.127984907504E+04   -0.14625E-08    0.00000E+00     5   0.133E-07    0.513E-07
RMM:   3    -0.127984907504E+04   -0.29104E-10    0.00000E+00     2   0.103E-07    0.579E-07
RMM:   4    -0.127984907504E+04    0.21828E-10    0.00000E+00     2   0.983E-08    0.393E-07
RMM:   5    -0.127984907504E+04   -0.94587E-10    0.00000E+00     2   0.107E-07
  62 F= -.12887707E+04 E0= -.12887617E+04  d E =-.784944E+01  mag=    21.0000
       N       E                     dE             d eps       ncg     rms          rms(c)
DAV:   1    -0.127984907504E+04    0.39290E-09    0.93381E-09  1080   0.138E-07    0.155E-07
RMM:   2    -0.127984907504E+04   -0.42928E-09    0.00000E+00     4   0.102E-07    0.310E-07
RMM:   3    -0.127984907504E+04    0.50932E-10    0.00000E+00     2   0.800E-08    0.390E-07
RMM:   4    -0.127984907504E+04   -0.94587E-10    0.00000E+00     2   0.828E-08    0.402E-07
RMM:   5    -0.127984907504E+04    0.29104E-10    0.00000E+00     2   0.859E-08
  63 F= -.12887707E+04 E0= -.12887617E+04  d E =-.784944E+01  mag=    21.0000
       N       E                     dE             d eps       ncg     rms          rms(c)
DAV:   1    -0.127984907504E+04    0.16735E-08    0.94213E-09  1080   0.112E-07    0.141E-07
RMM:   2    -0.127984907504E+04   -0.17681E-08    0.00000E+00     4   0.969E-08    0.476E-07
RMM:   3    -0.127984907504E+04    0.13824E-09    0.00000E+00     2   0.805E-08    0.468E-07
RMM:   4    -0.127984907504E+04   -0.12369E-09    0.00000E+00     2   0.715E-08    0.207E-07
RMM:   5    -0.127984907504E+04    0.58208E-10    0.00000E+00     2   0.757E-08
  64 F= -.12887707E+04 E0= -.12887617E+04  d E =-.784944E+01  mag=    21.0000
       N       E                     dE             d eps       ncg     rms          rms(c)
DAV:   1    -0.127984907504E+04    0.99681E-09    0.94902E-09  1080   0.102E-07    0.118E-07
RMM:   2    -0.127984907504E+04   -0.88767E-09    0.00000E+00     5   0.776E-08    0.320E-07
RMM:   3    -0.127984907504E+04   -0.36380E-10    0.00000E+00     2   0.645E-08    0.392E-07
RMM:   4    -0.127984907504E+04    0.36380E-10    0.00000E+00     2   0.596E-08    0.199E-07
RMM:   5    -0.127984907504E+04   -0.87311E-10    0.00000E+00     2   0.635E-08
  65 F= -.12887707E+04 E0= -.12887617E+04  d E =-.784944E+01  mag=    21.0000
       N       E                     dE             d eps       ncg     rms          rms(c)
DAV:   1    -0.127984907504E+04    0.80763E-09    0.93150E-09  1080   0.832E-08    0.995E-08
RMM:   2    -0.127984907504E+04   -0.85129E-09    0.00000E+00     5   0.707E-08    0.464E-07
RMM:   3    -0.127984907504E+04   -0.29104E-10    0.00000E+00     2   0.635E-08    0.253E-07
RMM:   4    -0.127984907504E+04   -0.21828E-10    0.00000E+00     2   0.497E-08    0.129E-07
RMM:   5    -0.127984907504E+04    0.13824E-09    0.00000E+00     2   0.570E-08
  66 F= -.12887707E+04 E0= -.12887617E+04  d E =-.784944E+01  mag=    21.0000
       N       E                     dE             d eps       ncg     rms          rms(c)
DAV:   1    -0.127984907504E+04    0.99681E-09    0.95146E-09  1080   0.691E-08    0.894E-08
RMM:   2    -0.127984907504E+04   -0.93132E-09    0.00000E+00     5   0.593E-08    0.186E-07
RMM:   3    -0.127984907504E+04    0.17462E-09    0.00000E+00     2   0.433E-08    0.110E-07
RMM:   4    -0.127984907504E+04   -0.13824E-09    0.00000E+00     2   0.473E-08    0.226E-07
RMM:   5    -0.127984907504E+04   -0.43656E-10    0.00000E+00     2   0.482E-08
  67 F= -.12887707E+04 E0= -.12887617E+04  d E =-.784944E+01  mag=    21.0000
       N       E                     dE             d eps       ncg     rms          rms(c)
DAV:   1    -0.127984907504E+04   -0.21828E-09    0.93685E-09  1080   0.664E-08    0.746E-08
RMM:   2    -0.127984907504E+04    0.27649E-09    0.00000E+00     5   0.525E-08    0.315E-07
RMM:   3    -0.127984907504E+04   -0.65484E-10    0.00000E+00     2   0.435E-08    0.225E-07
RMM:   4    -0.127984907504E+04    0.29104E-10    0.00000E+00     2   0.384E-08    0.922E-08
RMM:   5    -0.127984907504E+04   -0.36380E-10    0.00000E+00     2   0.398E-08
  68 F= -.12887707E+04 E0= -.12887617E+04  d E =-.784944E+01  mag=    21.0000
       N       E                     dE             d eps       ncg     rms          rms(c)
DAV:   1    -0.127984907504E+04    0.19718E-08    0.94516E-09  1080   0.527E-08    0.605E-08
RMM:   2    -0.127984907504E+04   -0.19863E-08    0.00000E+00     4   0.422E-08    0.138E-07
RMM:   3    -0.127984907504E+04   -0.87311E-10    0.00000E+00     2   0.333E-08    0.168E-07
RMM:   4    -0.127984907504E+04    0.11642E-09    0.00000E+00     2   0.331E-08    0.146E-07
RMM:   5    -0.127984907504E+04   -0.50932E-10    0.00000E+00     2   0.350E-08
  69 F= -.12887707E+04 E0= -.12887617E+04  d E =-.784944E+01  mag=    21.0000
       N       E                     dE             d eps       ncg     rms          rms(c)
DAV:   1    -0.127984907504E+04    0.90222E-09    0.93376E-09  1080   0.453E-08    0.541E-08
RMM:   2    -0.127984907504E+04   -0.10623E-08    0.00000E+00     3   0.380E-08    0.204E-07
RMM:   3    -0.127984907504E+04    0.65484E-10    0.00000E+00     2   0.331E-08    0.169E-07
RMM:   4    -0.127984907504E+04   -0.10914E-09    0.00000E+00     2   0.278E-08    0.699E-08
RMM:   5    -0.127984907504E+04   -0.21828E-10    0.00000E+00     2   0.304E-08
  70 F= -.12887707E+04 E0= -.12887617E+04  d E =-.784944E+01  mag=    21.0000
       N       E                     dE             d eps       ncg     rms          rms(c)
DAV:   1    -0.127984907504E+04    0.13970E-08    0.93317E-09  1080   0.382E-08    0.471E-08
RMM:   2    -0.127984907504E+04   -0.13388E-08    0.00000E+00     4   0.330E-08    0.145E-07
RMM:   3    -0.127984907504E+04    0.13824E-09    0.00000E+00     2   0.273E-08    0.147E-07
RMM:   4    -0.127984907504E+04   -0.58208E-10    0.00000E+00     2   0.247E-08    0.827E-08
RMM:   5    -0.127984907504E+04   -0.50932E-10    0.00000E+00     2   0.262E-08
  71 F= -.12887707E+04 E0= -.12887617E+04  d E =-.784944E+01  mag=    21.0000
       N       E                     dE             d eps       ncg     rms          rms(c)
DAV:   1    -0.127984907504E+04    0.70577E-09    0.92323E-09  1080   0.351E-08    0.392E-08
RMM:   2    -0.127984907504E+04   -0.71304E-09    0.00000E+00     4   0.272E-08    0.150E-07
RMM:   3    -0.127984907504E+04   -0.36380E-10    0.00000E+00     2   0.244E-08    0.115E-07
RMM:   4    -0.127984907504E+04    0.87311E-10    0.00000E+00     2   0.201E-08    0.493E-08
RMM:   5    -0.127984907504E+04   -0.10186E-09    0.00000E+00     2   0.226E-08
  72 F= -.12887707E+04 E0= -.12887617E+04  d E =-.784944E+01  mag=    21.0000
       N       E                     dE             d eps       ncg     rms          rms(c)
DAV:   1    -0.127984907504E+04    0.79308E-09    0.93390E-09  1080   0.274E-08    0.375E-08
RMM:   2    -0.127984907504E+04   -0.73487E-09    0.00000E+00     4   0.277E-08    0.109E-07
RMM:   3    -0.127984907504E+04   -0.15280E-09    0.00000E+00     2   0.200E-08    0.343E-08
RMM:   4    -0.127984907504E+04    0.21828E-10    0.00000E+00     2   0.204E-08    0.554E-08
RMM:   5    -0.127984907504E+04   -0.21828E-10    0.00000E+00     2   0.212E-08
  73 F= -.12887707E+04 E0= -.12887617E+04  d E =-.784944E+01  mag=    21.0000
       N       E                     dE             d eps       ncg     rms          rms(c)
DAV:   1    -0.127984907504E+04    0.16225E-08    0.92292E-09  1080   0.275E-08    0.314E-08
RMM:   2    -0.127984907504E+04   -0.15934E-08    0.00000E+00     2   0.214E-08    0.152E-07
RMM:   3    -0.127984907504E+04   -0.50932E-10    0.00000E+00     2   0.177E-08    0.683E-08
RMM:   4    -0.127984907504E+04    0.29104E-10    0.00000E+00     2   0.155E-08    0.400E-08
RMM:   5    -0.127984907504E+04    0.94587E-10    0.00000E+00     2   0.165E-08
  74 F= -.12887707E+04 E0= -.12887617E+04  d E =-.784944E+01  mag=    21.0000
       N       E                     dE             d eps       ncg     rms          rms(c)
DAV:   1    -0.127984907504E+04    0.61118E-09    0.92949E-09  1080   0.222E-08    0.271E-08
RMM:   2    -0.127984907504E+04   -0.60390E-09    0.00000E+00     2   0.196E-08    0.148E-07
RMM:   3    -0.127984907504E+04   -0.29104E-10    0.00000E+00     2   0.175E-08    0.741E-08
RMM:   4    -0.127984907504E+04    0.58208E-10    0.00000E+00     2   0.137E-08    0.268E-08
RMM:   5    -0.127984907504E+04    0.36380E-10    0.00000E+00     2   0.143E-08
  75 F= -.12887707E+04 E0= -.12887617E+04  d E =-.784944E+01  mag=    21.0000
       N       E                     dE             d eps       ncg     rms          rms(c)
DAV:   1    -0.127984907504E+04    0.16662E-08    0.91968E-09  1080   0.189E-08    0.208E-08
RMM:   2    -0.127984907504E+04   -0.17608E-08    0.00000E+00     2   0.148E-08    0.593E-08
RMM:   3    -0.127984907504E+04    0.11642E-09    0.00000E+00     2   0.129E-08    0.670E-08
RMM:   4    -0.127984907504E+04   -0.43656E-10    0.00000E+00     2   0.117E-08    0.376E-08
RMM:   5    -0.127984907504E+04   -0.72760E-11    0.00000E+00     2   0.127E-08
  76 F= -.12887707E+04 E0= -.12887617E+04  d E =-.784944E+01  mag=    21.0000
       N       E                     dE             d eps       ncg     rms          rms(c)
DAV:   1    -0.127984907504E+04    0.14406E-08    0.93843E-09  1080   0.164E-08    0.180E-08
RMM:   2    -0.127984907504E+04   -0.15352E-08    0.00000E+00     2   0.138E-08    0.365E-08
RMM:   3    -0.127984907504E+04    0.50932E-10    0.00000E+00     2   0.107E-08    0.202E-08
RMM:   4    -0.127984907504E+04   -0.72760E-11    0.00000E+00     2   0.115E-08    0.289E-08
RMM:   5    -0.127984907504E+04   -0.43656E-10    0.00000E+00     2   0.113E-08
  77 F= -.12887707E+04 E0= -.12887617E+04  d E =-.784944E+01  mag=    21.0000
       N       E                     dE             d eps       ncg     rms          rms(c)
DAV:   1    -0.127984907504E+04   -0.24011E-09    0.93518E-09  1080   0.149E-08    0.167E-08
RMM:   2    -0.127984907504E+04    0.29831E-09    0.00000E+00     2   0.123E-08    0.594E-08
RMM:   3    -0.127984907504E+04   -0.29104E-10    0.00000E+00     2   0.104E-08    0.492E-08
RMM:   4    -0.127984907504E+04    0.13097E-09    0.00000E+00     2   0.977E-09    0.263E-08
[...]
 968 F= -.12887707E+04 E0= -.12887617E+04  d E =-.784944E+01  mag=    21.0000
       N       E                     dE             d eps       ncg     rms          rms(c)
DAV:   1    -0.127984907504E+04    0.70577E-09    0.94361E-09  1080   0.395E-09    0.257E-09
RMM:   2    -0.127984907504E+04   -0.74942E-09    0.00000E+00     0   0.376E-09    0.240E-08
RMM:   3    -0.127984907504E+04    0.65484E-10    0.00000E+00     0   0.364E-09    0.411E-09
RMM:   4    -0.127984907504E+04    0.21828E-10    0.00000E+00     0   0.325E-09    0.296E-09
RMM:   5    -0.127984907504E+04   -0.58208E-10    0.00000E+00     0   0.322E-09
 969 F= -.12887707E+04 E0= -.12887617E+04  d E =-.784944E+01  mag=    21.0000
       N       E                     dE             d eps       ncg     rms          rms(c)
DAV:   1    -0.127984907504E+04    0.84401E-09    0.94165E-09  1080   0.360E-09    0.299E-09
RMM:   2    -0.127984907504E+04   -0.87311E-09    0.00000E+00     0   0.395E-09    0.180E-08
RMM:   3    -0.127984907504E+04    0.43656E-10    0.00000E+00     0   0.334E-09    0.671E-09
RMM:   4    -0.127984907504E+04   -0.87311E-10    0.00000E+00     0   0.299E-09    0.304E-09
RMM:   5    -0.127984907504E+04   -0.72760E-11    0.00000E+00     0   0.325E-09
 970 F= -.12887707E+04 E0= -.12887617E+04  d E =-.784944E+01  mag=    21.0000
       N       E                     dE             d eps       ncg     rms          rms(c)
DAV:   1    -0.127984907504E+04    0.14261E-08    0.92983E-09  1080   0.384E-09    0.273E-09
RMM:   2    -0.127984907504E+04   -0.14334E-08    0.00000E+00     0   0.350E-09    0.167E-08
RMM:   3    -0.127984907504E+04    0.10914E-09    0.00000E+00     0   0.319E-09    0.611E-09
RMM:   4    -0.127984907504E+04   -0.43656E-10    0.00000E+00     0   0.287E-09    0.310E-09
RMM:   5    -0.127984907504E+04    0.72760E-11    0.00000E+00     0   0.329E-09
 971 F= -.12887707E+04 E0= -.12887617E+04  d E =-.784944E+01  mag=    21.0000
       N       E                     dE             d eps       ncg     rms          rms(c)
DAV:   1    -0.127984907504E+04    0.12296E-08    0.93881E-09  1080   0.408E-09    0.341E-09
RMM:   2    -0.127984907504E+04   -0.12296E-08    0.00000E+00     0   0.440E-09    0.271E-08
RMM:   3    -0.127984907504E+04   -0.12369E-09    0.00000E+00     0   0.397E-09    0.549E-09
RMM:   4    -0.127984907504E+04    0.18190E-09    0.00000E+00     0   0.331E-09    0.275E-09
RMM:   5    -0.127984907504E+04   -0.65484E-10    0.00000E+00     0   0.327E-09
 972 F= -.12887707E+04 E0= -.12887617E+04  d E =-.784944E+01  mag=    21.0000
       N       E                     dE             d eps       ncg     rms          rms(c)
DAV:   1    -0.127984907504E+04    0.11278E-08    0.92811E-09  1080   0.459E-09    0.395E-09
RMM:   2    -0.127984907504E+04   -0.12733E-08    0.00000E+00     0   0.421E-09    0.238E-08
RMM:   3    -0.127984907504E+04    0.15280E-09    0.00000E+00     0   0.439E-09    0.847E-09
RMM:   4    -0.127984907504E+04   -0.94587E-10    0.00000E+00     0   0.363E-09    0.347E-09
RMM:   5    -0.127984907504E+04   -0.58208E-10    0.00000E+00     0   0.379E-09
 973 F= -.12887707E+04 E0= -.12887617E+04  d E =-.784944E+01  mag=    21.0000
       N       E                     dE             d eps       ncg     rms          rms(c)
DAV:   1    -0.127984907504E+04    0.99681E-09    0.93868E-09  1080   0.464E-09    0.365E-09
RMM:   2    -0.127984907504E+04   -0.98953E-09    0.00000E+00     0   0.468E-09    0.154E-08
RMM:   3    -0.127984907504E+04   -0.65484E-10    0.00000E+00     0   0.337E-09    0.480E-09
RMM:   4    -0.127984907504E+04    0.43656E-10    0.00000E+00     0   0.343E-09    0.634E-09
RMM:   5    -0.127984907504E+04   -0.72760E-11    0.00000E+00     0   0.356E-09
 974 F= -.12887707E+04 E0= -.12887617E+04  d E =-.784944E+01  mag=    21.0000
       N       E                     dE             d eps       ncg     rms          rms(c)
DAV:   1    -0.127984907504E+04    0.10259E-08    0.93030E-09  1080   0.400E-09    0.300E-09
RMM:   2    -0.127984907504E+04   -0.10041E-08    0.00000E+00     0   0.394E-09    0.147E-08
RMM:   3    -0.127984907504E+04   -0.72760E-11    0.00000E+00     0   0.342E-09    0.894E-09
RMM:   4    -0.127984907504E+04   -0.80036E-10    0.00000E+00     0   0.323E-09    0.271E-09
RMM:   5    -0.127984907504E+04    0.10186E-09    0.00000E+00     0   0.309E-09
 975 F= -.12887707E+04 E0= -.12887617E+04  d E =-.784944E+01  mag=    21.0000
       N       E                     dE             d eps       ncg     rms          rms(c)
DAV:   1    -0.127984907504E+04    0.10841E-08    0.93463E-09  1080   0.389E-09    0.300E-09
RMM:   2    -0.127984907504E+04   -0.96770E-09    0.00000E+00     0   0.404E-09    0.134E-08
RMM:   3    -0.127984907504E+04   -0.14552E-10    0.00000E+00     0   0.338E-09    0.981E-09
RMM:   4    -0.127984907504E+04    0.50932E-10    0.00000E+00     0   0.324E-09    0.288E-09
RMM:   5    -0.127984907504E+04   -0.14552E-10    0.00000E+00     0   0.360E-09
 976 F= -.12887707E+04 E0= -.12887617E+04  d E =-.784944E+01  mag=    21.0000
       N       E                     dE             d eps       ncg     rms          rms(c)
DAV:   1    -0.127984907504E+04    0.20373E-08    0.93433E-09  1080   0.383E-09    0.311E-09
RMM:   2    -0.127984907504E+04   -0.21682E-08    0.00000E+00     0   0.436E-09    0.194E-08
RMM:   3    -0.127984907504E+04    0.72760E-11    0.00000E+00     0   0.380E-09    0.699E-09
RMM:   4    -0.127984907504E+04    0.10186E-09    0.00000E+00     0   0.338E-09    0.333E-09
RMM:   5    -0.127984907504E+04   -0.58208E-10    0.00000E+00     0   0.359E-09
 977 F= -.12887707E+04 E0= -.12887617E+04  d E =-.784944E+01  mag=    21.0000
       N       E                     dE             d eps       ncg     rms          rms(c)
DAV:   1    -0.127984907504E+04   -0.55297E-09    0.93533E-09  1080   0.445E-09    0.387E-09
RMM:   2    -0.127984907504E+04    0.51659E-09    0.00000E+00     0   0.426E-09    0.165E-08
RMM:   3    -0.127984907504E+04   -0.29104E-10    0.00000E+00     0   0.385E-09    0.925E-09
RMM:   4    -0.127984907504E+04   -0.14552E-10    0.00000E+00     0   0.327E-09    0.547E-09
RMM:   5    -0.127984907504E+04    0.14552E-10    0.00000E+00     0   0.369E-09
 978 F= -.12887707E+04 E0= -.12887617E+04  d E =-.784944E+01  mag=    21.0000
       N       E                     dE             d eps       ncg     rms          rms(c)
DAV:   1    -0.127984907504E+04    0.13461E-08    0.93513E-09  1080   0.454E-09    0.315E-09
RMM:   2    -0.127984907504E+04   -0.13315E-08    0.00000E+00     0   0.390E-09    0.228E-08
RMM:   3    -0.127984907504E+04   -0.65484E-10    0.00000E+00     0   0.381E-09    0.972E-09
RMM:   4    -0.127984907504E+04    0.16007E-09    0.00000E+00     0   0.303E-09    0.182E-09
RMM:   5    -0.127984907504E+04   -0.21828E-10    0.00000E+00     0   0.336E-09
 979 F= -.12887707E+04 E0= -.12887617E+04  d E =-.784944E+01  mag=    21.0000
       N       E                     dE             d eps       ncg     rms          rms(c)
DAV:   1    -0.127984907504E+04    0.58208E-09    0.93487E-09  1080   0.381E-09    0.269E-09
RMM:   2    -0.127984907504E+04   -0.56025E-09    0.00000E+00     0   0.371E-09    0.947E-09
RMM:   3    -0.127984907504E+04   -0.11642E-09    0.00000E+00     0   0.332E-09    0.825E-09
RMM:   4    -0.127984907504E+04    0.21828E-10    0.00000E+00     0   0.319E-09    0.445E-09
RMM:   5    -0.127984907504E+04    0.72760E-11    0.00000E+00     0   0.316E-09
 980 F= -.12887707E+04 E0= -.12887617E+04  d E =-.784944E+01  mag=    21.0000
       N       E                     dE             d eps       ncg     rms          rms(c)
DAV:   1    -0.127984907504E+04    0.84401E-09    0.93437E-09  1080   0.380E-09    0.293E-09
RMM:   2    -0.127984907504E+04   -0.85856E-09    0.00000E+00     0   0.372E-09    0.209E-08
RMM:   3    -0.127984907504E+04    0.65484E-10    0.00000E+00     0   0.384E-09    0.497E-09
RMM:   4    -0.127984907504E+04    0.72760E-11    0.00000E+00     0   0.321E-09    0.276E-09
RMM:   5    -0.127984907504E+04   -0.80036E-10    0.00000E+00     0   0.344E-09
 981 F= -.12887707E+04 E0= -.12887617E+04  d E =-.784944E+01  mag=    21.0000
       N       E                     dE             d eps       ncg     rms          rms(c)
DAV:   1    -0.127984907504E+04   -0.20373E-09    0.92414E-09  1080   0.434E-09    0.359E-09
RMM:   2    -0.127984907504E+04    0.12369E-09    0.00000E+00     0   0.409E-09    0.314E-08
RMM:   3    -0.127984907504E+04    0.43656E-10    0.00000E+00     0   0.379E-09    0.440E-09
RMM:   4    -0.127984907504E+04   -0.87311E-10    0.00000E+00     0   0.333E-09    0.429E-09
RMM:   5    -0.127984907504E+04    0.10186E-09    0.00000E+00     0   0.343E-09
 982 F= -.12887707E+04 E0= -.12887617E+04  d E =-.784944E+01  mag=    21.0000
       N       E                     dE             d eps       ncg     rms          rms(c)
DAV:   1    -0.127984907504E+04    0.60390E-09    0.93658E-09  1080   0.432E-09    0.297E-09
RMM:   2    -0.127984907504E+04   -0.61118E-09    0.00000E+00     0   0.367E-09    0.236E-08
RMM:   3    -0.127984907504E+04    0.36380E-10    0.00000E+00     0   0.366E-09    0.610E-09
RMM:   4    -0.127984907504E+04   -0.14552E-10    0.00000E+00     0   0.324E-09    0.230E-09
RMM:   5    -0.127984907504E+04    0.10914E-09    0.00000E+00     0   0.309E-09
 983 F= -.12887707E+04 E0= -.12887617E+04  d E =-.784944E+01  mag=    21.0000
       N       E                     dE             d eps       ncg     rms          rms(c)
DAV:   1    -0.127984907504E+04    0.17317E-08    0.94292E-09  1080   0.358E-09    0.259E-09
RMM:   2    -0.127984907504E+04   -0.17099E-08    0.00000E+00     0   0.363E-09    0.842E-09
RMM:   3    -0.127984907504E+04    0.00000E+00    0.00000E+00     0   0.323E-09    0.444E-09
RMM:   4    -0.127984907504E+04    0.43656E-10    0.00000E+00     0   0.334E-09    0.696E-09
RMM:   5    -0.127984907504E+04   -0.72760E-11    0.00000E+00     0   0.358E-09
 984 F= -.12887707E+04 E0= -.12887617E+04  d E =-.784944E+01  mag=    21.0000
       N       E                     dE             d eps       ncg     rms          rms(c)
DAV:   1    -0.127984907504E+04    0.42928E-09    0.93463E-09  1080   0.386E-09    0.288E-09
RMM:   2    -0.127984907504E+04   -0.41473E-09    0.00000E+00     0   0.373E-09    0.899E-09
RMM:   3    -0.127984907504E+04    0.36380E-10    0.00000E+00     0   0.334E-09    0.569E-09
RMM:   4    -0.127984907504E+04   -0.10914E-09    0.00000E+00     0   0.363E-09    0.545E-09
RMM:   5    -0.127984907504E+04    0.00000E+00    0.00000E+00     0   0.343E-09
 985 F= -.12887707E+04 E0= -.12887617E+04  d E =-.784944E+01  mag=    21.0000
       N       E                     dE             d eps       ncg     rms          rms(c)
DAV:   1    -0.127984907504E+04    0.21100E-08    0.93942E-09  1080   0.398E-09    0.315E-09
RMM:   2    -0.127984907504E+04   -0.20227E-08    0.00000E+00     0   0.397E-09    0.238E-08
RMM:   3    -0.127984907504E+04   -0.87311E-10    0.00000E+00     0   0.374E-09    0.635E-09
RMM:   4    -0.127984907504E+04    0.80036E-10    0.00000E+00     0   0.353E-09    0.245E-09
RMM:   5    -0.127984907504E+04   -0.43656E-10    0.00000E+00     0   0.335E-09
 986 F= -.12887707E+04 E0= -.12887617E+04  d E =-.784944E+01  mag=    21.0000
       N       E                     dE             d eps       ncg     rms          rms(c)
DAV:   1    -0.127984907504E+04    0.14697E-08    0.93194E-09  1080   0.371E-09    0.216E-09
RMM:   2    -0.127984907504E+04   -0.14334E-08    0.00000E+00     0   0.339E-09    0.523E-09
RMM:   3    -0.127984907504E+04    0.72760E-11    0.00000E+00     0   0.320E-09    0.216E-09
RMM:   4    -0.127984907504E+04   -0.14552E-09    0.00000E+00     0   0.337E-09    0.257E-09
RMM:   5    -0.127984907504E+04    0.36380E-10    0.00000E+00     0   0.321E-09
 987 F= -.12887707E+04 E0= -.12887617E+04  d E =-.784944E+01  mag=    21.0000
       N       E                     dE             d eps       ncg     rms          rms(c)
DAV:   1    -0.127984907504E+04    0.35652E-09    0.93101E-09  1080   0.356E-09    0.405E-09
RMM:   2    -0.127984907504E+04   -0.27649E-09    0.00000E+00     0   0.458E-09    0.548E-08
RMM:   3    -0.127984907504E+04    0.14552E-09    0.00000E+00     0   0.431E-09    0.839E-09
RMM:   4    -0.127984907504E+04   -0.16007E-09    0.00000E+00     0   0.316E-09    0.381E-09
RMM:   5    -0.127984907504E+04   -0.43656E-10    0.00000E+00     0   0.316E-09
 988 F= -.12887707E+04 E0= -.12887617E+04  d E =-.784944E+01  mag=    21.0000
       N       E                     dE             d eps       ncg     rms          rms(c)
DAV:   1    -0.127984907504E+04    0.22555E-09    0.94103E-09  1080   0.401E-09    0.351E-09
RMM:   2    -0.127984907504E+04   -0.24738E-09    0.00000E+00     0   0.380E-09    0.256E-08
RMM:   3    -0.127984907504E+04    0.00000E+00    0.00000E+00     0   0.337E-09    0.504E-09
RMM:   4    -0.127984907504E+04    0.43656E-10    0.00000E+00     0   0.339E-09    0.453E-09
RMM:   5    -0.127984907504E+04   -0.21828E-10    0.00000E+00     0   0.355E-09
 989 F= -.12887707E+04 E0= -.12887617E+04  d E =-.784944E+01  mag=    21.0000
       N       E                     dE             d eps       ncg     rms          rms(c)
DAV:   1    -0.127984907504E+04    0.29104E-09    0.93496E-09  1080   0.422E-09    0.414E-09
RMM:   2    -0.127984907504E+04   -0.28376E-09    0.00000E+00     0   0.454E-09    0.420E-08
RMM:   3    -0.127984907504E+04   -0.94587E-10    0.00000E+00     0   0.434E-09    0.897E-09
RMM:   4    -0.127984907504E+04   -0.72760E-11    0.00000E+00     0   0.354E-09    0.383E-09
RMM:   5    -0.127984907504E+04    0.43656E-10    0.00000E+00     0   0.327E-09
 990 F= -.12887707E+04 E0= -.12887617E+04  d E =-.784944E+01  mag=    21.0000
       N       E                     dE             d eps       ncg     rms          rms(c)
DAV:   1    -0.127984907504E+04    0.10186E-08    0.93680E-09  1080   0.408E-09    0.310E-09
RMM:   2    -0.127984907504E+04   -0.98953E-09    0.00000E+00     0   0.392E-09    0.215E-08
RMM:   3    -0.127984907504E+04    0.12369E-09    0.00000E+00     0   0.386E-09    0.547E-09
RMM:   4    -0.127984907504E+04   -0.12369E-09    0.00000E+00     0   0.305E-09    0.399E-09
RMM:   5    -0.127984907504E+04    0.58208E-10    0.00000E+00     0   0.320E-09
 991 F= -.12887707E+04 E0= -.12887617E+04  d E =-.784944E+01  mag=    21.0000
       N       E                     dE             d eps       ncg     rms          rms(c)
DAV:   1    -0.127984907504E+04    0.94587E-09    0.94100E-09  1080   0.400E-09    0.329E-09
RMM:   2    -0.127984907504E+04   -0.98225E-09    0.00000E+00     0   0.415E-09    0.229E-08
RMM:   3    -0.127984907504E+04    0.13824E-09    0.00000E+00     0   0.368E-09    0.913E-09
RMM:   4    -0.127984907504E+04   -0.43656E-10    0.00000E+00     0   0.293E-09    0.214E-09
RMM:   5    -0.127984907504E+04    0.21828E-10    0.00000E+00     0   0.311E-09
 992 F= -.12887707E+04 E0= -.12887617E+04  d E =-.784944E+01  mag=    21.0000
       N       E                     dE             d eps       ncg     rms          rms(c)
DAV:   1    -0.127984907504E+04    0.95315E-09    0.93284E-09  1080   0.400E-09    0.300E-09
RMM:   2    -0.127984907504E+04   -0.10186E-08    0.00000E+00     0   0.379E-09    0.134E-08
RMM:   3    -0.127984907504E+04    0.87311E-10    0.00000E+00     0   0.362E-09    0.711E-09
RMM:   4    -0.127984907504E+04   -0.72760E-11    0.00000E+00     0   0.327E-09    0.479E-09
RMM:   5    -0.127984907504E+04   -0.65484E-10    0.00000E+00     0   0.327E-09
 993 F= -.12887707E+04 E0= -.12887617E+04  d E =-.784944E+01  mag=    21.0000
       N       E                     dE             d eps       ncg     rms          rms(c)
DAV:   1    -0.127984907504E+04    0.26921E-09    0.93184E-09  1080   0.377E-09    0.314E-09
RMM:   2    -0.127984907504E+04   -0.28376E-09    0.00000E+00     0   0.390E-09    0.330E-08
RMM:   3    -0.127984907504E+04    0.36380E-10    0.00000E+00     0   0.377E-09    0.519E-09
RMM:   4    -0.127984907504E+04   -0.29104E-10    0.00000E+00     0   0.324E-09    0.309E-09
RMM:   5    -0.127984907504E+04   -0.87311E-10    0.00000E+00     0   0.338E-09
 994 F= -.12887707E+04 E0= -.12887617E+04  d E =-.784944E+01  mag=    21.0000
       N       E                     dE             d eps       ncg     rms          rms(c)
DAV:   1    -0.127984907504E+04    0.88039E-09    0.93018E-09  1080   0.385E-09    0.289E-09
RMM:   2    -0.127984907504E+04   -0.95315E-09    0.00000E+00     0   0.370E-09    0.252E-08
RMM:   3    -0.127984907504E+04    0.00000E+00    0.00000E+00     0   0.356E-09    0.269E-09
RMM:   4    -0.127984907504E+04    0.65484E-10    0.00000E+00     0   0.344E-09    0.395E-09
RMM:   5    -0.127984907504E+04    0.72760E-10    0.00000E+00     0   0.342E-09
 995 F= -.12887707E+04 E0= -.12887617E+04  d E =-.784944E+01  mag=    21.0000
       N       E                     dE             d eps       ncg     rms          rms(c)
DAV:   1    -0.127984907504E+04    0.18190E-09    0.94274E-09  1080   0.377E-09    0.348E-09
RMM:   2    -0.127984907504E+04   -0.16007E-09    0.00000E+00     0   0.407E-09    0.312E-08
RMM:   3    -0.127984907504E+04   -0.65484E-10    0.00000E+00     0   0.384E-09    0.618E-09
RMM:   4    -0.127984907504E+04    0.13824E-09    0.00000E+00     0   0.331E-09    0.393E-09
RMM:   5    -0.127984907504E+04   -0.80036E-10    0.00000E+00     0   0.304E-09
 996 F= -.12887707E+04 E0= -.12887617E+04  d E =-.784944E+01  mag=    21.0000
       N       E                     dE             d eps       ncg     rms          rms(c)
DAV:   1    -0.127984907504E+04    0.19209E-08    0.93176E-09  1080   0.392E-09    0.389E-09
RMM:   2    -0.127984907504E+04   -0.19791E-08    0.00000E+00     0   0.408E-09    0.408E-08
RMM:   3    -0.127984907504E+04   -0.10186E-09    0.00000E+00     0   0.387E-09    0.659E-09
RMM:   4    -0.127984907504E+04    0.80036E-10    0.00000E+00     0   0.340E-09    0.403E-09
RMM:   5    -0.127984907504E+04    0.58208E-10    0.00000E+00     0   0.354E-09
 997 F= -.12887707E+04 E0= -.12887617E+04  d E =-.784944E+01  mag=    21.0000
       N       E                     dE             d eps       ncg     rms          rms(c)
DAV:   1    -0.127984907504E+04    0.74215E-09    0.93547E-09  1080   0.398E-09    0.363E-09
RMM:   2    -0.127984907504E+04   -0.72760E-09    0.00000E+00     0   0.403E-09    0.344E-08
RMM:   3    -0.127984907504E+04   -0.58208E-10    0.00000E+00     0   0.401E-09    0.523E-09
RMM:   4    -0.127984907504E+04    0.58208E-10    0.00000E+00     0   0.349E-09    0.334E-09
RMM:   5    -0.127984907504E+04   -0.43656E-10    0.00000E+00     0   0.329E-09
 998 F= -.12887707E+04 E0= -.12887617E+04  d E =-.784944E+01  mag=    21.0000
       N       E                     dE             d eps       ncg     rms          rms(c)
DAV:   1    -0.127984907504E+04    0.14188E-08    0.93591E-09  1080   0.409E-09    0.425E-09
RMM:   2    -0.127984907504E+04   -0.14843E-08    0.00000E+00     0   0.453E-09    0.447E-08
RMM:   3    -0.127984907504E+04    0.12369E-09    0.00000E+00     0   0.406E-09    0.601E-09
RMM:   4    -0.127984907504E+04   -0.12369E-09    0.00000E+00     0   0.312E-09    0.360E-09
RMM:   5    -0.127984907504E+04    0.43656E-10    0.00000E+00     0   0.365E-09
 999 F= -.12887707E+04 E0= -.12887617E+04  d E =-.784944E+01  mag=    21.0000
       N       E                     dE             d eps       ncg     rms          rms(c)
DAV:   1    -0.127984907504E+04    0.15061E-08    0.92804E-09  1080   0.431E-09    0.291E-09
RMM:   2    -0.127984907504E+04   -0.14843E-08    0.00000E+00     0   0.394E-09    0.813E-09
RMM:   3    -0.127984907504E+04   -0.43656E-10    0.00000E+00     0   0.340E-09    0.670E-09
RMM:   4    -0.127984907504E+04    0.80036E-10    0.00000E+00     0   0.331E-09    0.675E-09
RMM:   5    -0.127984907504E+04   -0.65484E-10    0.00000E+00     0   0.365E-09
1000 F= -.12887707E+04 E0= -.12887617E+04  d E =-.784944E+01  mag=    21.0000
