       N       E                     dE             d eps       ncg     rms          rms(c)
DAV:   1     0.908815134428E+04    0.90882E+04   -0.36216E+05  2172   0.136E+03
DAV:   2     0.789811620223E+03   -0.82983E+04   -0.74983E+04  2544   0.425E+02
DAV:   3    -0.132698422192E+04   -0.21168E+04   -0.20070E+04  3588   0.214E+02
DAV:   4    -0.148308718435E+04   -0.15610E+03   -0.14489E+03  3372   0.652E+01
DAV:   5    -0.149136936203E+04   -0.82822E+01   -0.76553E+01  3576   0.144E+01    0.163E+02
RMM:   6    -0.201664876797E+04   -0.52528E+03   -0.35849E+03  2938   0.132E+02    0.530E+02
RMM:   7    -0.176391744985E+04    0.25273E+03   -0.27060E+02  2178   0.457E+01    0.320E+02
RMM:   8    -0.130680050276E+04    0.45712E+03   -0.56790E+02  2412   0.454E+01    0.102E+02
RMM:   9    -0.146995887675E+04   -0.16316E+03   -0.15682E+02  2353   0.239E+01    0.177E+02
RMM:  10    -0.148472380699E+04   -0.14765E+02   -0.70267E+01  2445   0.170E+01    0.155E+02
RMM:  11    -0.137870845507E+04    0.10602E+03   -0.68137E+01  2206   0.171E+01    0.142E+02
RMM:  12    -0.139957540705E+04   -0.20867E+02   -0.78496E+01  2201   0.186E+01    0.135E+02
RMM:  13    -0.133267835266E+04    0.66897E+02   -0.69666E+01  2219   0.177E+01    0.127E+02
RMM:  14    -0.130413827066E+04    0.28540E+02   -0.43739E+01  2363   0.137E+01    0.112E+02
RMM:  15    -0.123577781780E+04    0.68360E+02   -0.30230E+01  2374   0.102E+01    0.674E+01
RMM:  16    -0.128101595733E+04   -0.45238E+02   -0.20806E+01  2279   0.948E+00    0.119E+02
RMM:  17    -0.126082350742E+04    0.20192E+02   -0.21937E+01  2318   0.986E+00    0.102E+02
RMM:  18    -0.123153234693E+04    0.29291E+02   -0.97656E+00  2395   0.618E+00    0.566E+01
RMM:  19    -0.123534345152E+04   -0.38111E+01   -0.61999E+00  2347   0.483E+00    0.732E+01
RMM:  20    -0.123649252590E+04   -0.11491E+01   -0.50305E+00  2317   0.454E+00    0.620E+01
RMM:  21    -0.123107851784E+04    0.54140E+01   -0.28160E+00  2373   0.327E+00    0.385E+01
RMM:  22    -0.123446462073E+04   -0.33861E+01   -0.11887E+00  2349   0.204E+00    0.438E+01
RMM:  23    -0.123419992469E+04    0.26470E+00   -0.54136E-01  2299   0.155E+00    0.326E+01
RMM:  24    -0.123592281895E+04   -0.17229E+01   -0.47892E-01  2296   0.130E+00    0.384E+01
RMM:  25    -0.123673480406E+04   -0.81199E+00   -0.64414E-01  2258   0.159E+00    0.310E+01
RMM:  26    -0.123888328759E+04   -0.21485E+01   -0.88568E-01  2285   0.179E+00    0.345E+01
RMM:  27    -0.124099156281E+04   -0.21083E+01   -0.10203E+00  2255   0.187E+00    0.295E+01
RMM:  28    -0.124516817595E+04   -0.41766E+01   -0.11978E+00  2380   0.199E+00    0.384E+01
RMM:  29    -0.124525719696E+04   -0.89021E-01   -0.66163E-01  2345   0.162E+00    0.258E+01
RMM:  30    -0.124644365400E+04   -0.11865E+01   -0.41544E-01  2349   0.115E+00    0.264E+01
RMM:  31    -0.124835624345E+04   -0.19126E+01   -0.55439E-01  2347   0.132E+00    0.331E+01
RMM:  32    -0.124899550436E+04   -0.63926E+00   -0.62560E-01  2311   0.145E+00    0.237E+01
RMM:  33    -0.125274626706E+04   -0.37508E+01   -0.13289E+00  2242   0.205E+00    0.308E+01
RMM:  34    -0.125367362898E+04   -0.92736E+00   -0.99265E-01  2393   0.188E+00    0.230E+01
RMM:  35    -0.125531426473E+04   -0.16406E+01   -0.56344E-01  2400   0.129E+00    0.283E+01
RMM:  36    -0.125529081273E+04    0.23452E-01   -0.14278E-01  2346   0.799E-01    0.291E+01
RMM:  37    -0.125536073063E+04   -0.69918E-01   -0.96992E-02  2462   0.514E-01    0.275E+01
RMM:  38    -0.125503817633E+04    0.32255E+00   -0.39337E-02  2333   0.388E-01    0.243E+01
RMM:  39    -0.125619899435E+04   -0.11608E+01   -0.18493E-01  2224   0.702E-01    0.242E+01
RMM:  40    -0.125705596280E+04   -0.85697E+00   -0.24936E-01  2294   0.867E-01    0.246E+01
RMM:  41    -0.125701356740E+04    0.42395E-01   -0.98701E-02  2502   0.597E-01    0.241E+01
RMM:  42    -0.125732408038E+04   -0.31051E+00   -0.55494E-02  2519   0.412E-01    0.246E+01
RMM:  43    -0.125728268998E+04    0.41390E-01   -0.15077E-02  2381   0.257E-01    0.245E+01
RMM:  44    -0.125759131546E+04   -0.30863E+00   -0.13889E-01  2252   0.690E-01    0.235E+01
RMM:  45    -0.125795810793E+04   -0.36679E+00   -0.10651E-01  2395   0.639E-01    0.243E+01
RMM:  46    -0.125783662333E+04    0.12148E+00   -0.31687E-02  2476   0.357E-01    0.240E+01
RMM:  47    -0.125835380096E+04   -0.51718E+00   -0.16171E-01  2221   0.719E-01    0.223E+01
RMM:  48    -0.125976519738E+04   -0.14114E+01   -0.30761E-01  2260   0.995E-01    0.234E+01
RMM:  49    -0.126056487704E+04   -0.79968E+00   -0.17501E-01  2408   0.797E-01    0.236E+01
RMM:  50    -0.126154650002E+04   -0.98162E+00   -0.25317E-01  2355   0.808E-01    0.265E+01
RMM:  51    -0.126249536116E+04   -0.94886E+00   -0.16912E+00  2354   0.253E+00    0.258E+01
RMM:  52    -0.126266075808E+04   -0.16540E+00   -0.66672E-01  2309   0.170E+00    0.287E+01
RMM:  53    -0.126254208867E+04    0.11867E+00   -0.23751E-01  2492   0.906E-01    0.286E+01
RMM:  54    -0.126241102383E+04    0.13106E+00   -0.10663E-01  2506   0.550E-01    0.298E+01
RMM:  55    -0.126233202242E+04    0.79001E-01   -0.28408E-02  2451   0.321E-01    0.297E+01
RMM:  56    -0.126318129617E+04   -0.84927E+00   -0.35880E-01  2288   0.110E+00    0.344E+01
RMM:  57    -0.126303494655E+04    0.14635E+00   -0.33926E-01  2305   0.119E+00    0.317E+01
RMM:  58    -0.126322688542E+04   -0.19194E+00   -0.21193E-01  2313   0.918E-01    0.342E+01
RMM:  59    -0.126320541132E+04    0.21474E-01   -0.12997E-01  2249   0.768E-01    0.342E+01
RMM:  60    -0.126252493629E+04    0.68048E+00   -0.11367E-01  2222   0.595E-01    0.322E+01
RMM:  61    -0.126240879734E+04    0.11614E+00   -0.98905E-01  2281   0.178E+00    0.429E+01
RMM:  62    -0.126091148875E+04    0.14973E+01   -0.47362E-01  2230   0.152E+00    0.320E+01
RMM:  63    -0.126088325614E+04    0.28233E-01   -0.13502E-01  2378   0.749E-01    0.292E+01
RMM:  64    -0.126062351296E+04    0.25974E+00   -0.57095E-02  2469   0.407E-01    0.274E+01
RMM:  65    -0.126111434112E+04   -0.49083E+00   -0.13592E-01  2225   0.670E-01    0.269E+01
RMM:  66    -0.126087613438E+04    0.23821E+00   -0.76915E-01  2168   0.158E+00    0.276E+01
RMM:  67    -0.126136224602E+04   -0.48611E+00   -0.20980E-01  2264   0.100E+00    0.287E+01
RMM:  68    -0.126148671080E+04   -0.12446E+00   -0.88020E-02  2467   0.548E-01    0.286E+01
RMM:  69    -0.126174602271E+04   -0.25931E+00   -0.60063E-02  2416   0.433E-01    0.283E+01
RMM:  70    -0.126184920375E+04   -0.10318E+00   -0.25704E-02  2388   0.305E-01    0.281E+01
RMM:  71    -0.126366586774E+04   -0.18167E+01   -0.43209E-01  2227   0.124E+00    0.340E+01
RMM:  72    -0.126275370286E+04    0.91216E+00   -0.14840E-01  2290   0.798E-01    0.310E+01
RMM:  73    -0.126298608969E+04   -0.23239E+00   -0.61790E-02  2519   0.440E-01    0.321E+01
RMM:  74    -0.126295194830E+04    0.34141E-01   -0.23316E-02  2295   0.328E-01    0.325E+01
RMM:  75    -0.126256840170E+04    0.38355E+00   -0.56640E-02  2218   0.447E-01    0.339E+01
RMM:  76    -0.126574154871E+04   -0.31731E+01   -0.91255E-01  2252   0.177E+00    0.435E+01
RMM:  77    -0.126516180666E+04    0.57974E+00   -0.62605E-01  2375   0.161E+00    0.402E+01
RMM:  78    -0.126501389337E+04    0.14791E+00   -0.14101E-01  2371   0.766E-01    0.405E+01
RMM:  79    -0.126526376622E+04   -0.24987E+00   -0.84973E-02  2360   0.528E-01    0.381E+01
RMM:  80    -0.126620056489E+04   -0.93680E+00   -0.17345E-01  2341   0.767E-01    0.404E+01
RMM:  81    -0.126881339011E+04   -0.26128E+01   -0.18257E+00  2225   0.261E+00    0.435E+01
RMM:  82    -0.126747639599E+04    0.13370E+01   -0.11630E+00  2272   0.225E+00    0.351E+01
RMM:  83    -0.126704740000E+04    0.42900E+00   -0.75318E-01  2234   0.183E+00    0.318E+01
RMM:  84    -0.126781155173E+04   -0.76415E+00   -0.42480E-01  2284   0.132E+00    0.305E+01
RMM:  85    -0.126871044406E+04   -0.89889E+00   -0.18665E-01  2519   0.780E-01    0.293E+01
RMM:  86    -0.126729631187E+04    0.14141E+01   -0.98762E-01  2228   0.192E+00    0.297E+01
RMM:  87    -0.126781787410E+04   -0.52156E+00   -0.29752E-01  2350   0.104E+00    0.282E+01
RMM:  88    -0.126789026151E+04   -0.72387E-01   -0.16983E-01  2464   0.720E-01    0.308E+01
RMM:  89    -0.126788087622E+04    0.93853E-02   -0.10423E-01  2303   0.645E-01    0.293E+01
RMM:  90    -0.126787582211E+04    0.50541E-02   -0.43619E-02  2429   0.397E-01    0.288E+01
RMM:  91    -0.127513640218E+04   -0.72606E+01   -0.26530E+00  2252   0.311E+00    0.629E+01
RMM:  92    -0.127024199391E+04    0.48944E+01   -0.36894E+00  2233   0.346E+00    0.340E+01
RMM:  93    -0.126989414944E+04    0.34784E+00   -0.82932E-01  2283   0.188E+00    0.328E+01
RMM:  94    -0.126991229562E+04   -0.18146E-01   -0.39885E-01  2328   0.124E+00    0.266E+01
RMM:  95    -0.127009305642E+04   -0.18076E+00   -0.17223E-01  2457   0.724E-01    0.238E+01
RMM:  96    -0.127127564912E+04   -0.11826E+01   -0.10314E+00  2268   0.191E+00    0.372E+01
RMM:  97    -0.127103434066E+04    0.24131E+00   -0.46387E-01  2230   0.148E+00    0.314E+01
RMM:  98    -0.127127610024E+04   -0.24176E+00   -0.34852E-01  2318   0.111E+00    0.287E+01
RMM:  99    -0.127158306368E+04   -0.30696E+00   -0.22362E-01  2361   0.901E-01    0.280E+01
RMM: 100    -0.127174169190E+04   -0.15863E+00   -0.22849E-01  2351   0.893E-01    0.300E+01
RMM: 101    -0.127118022818E+04    0.56146E+00   -0.35486E-01  2302   0.119E+00    0.231E+01
RMM: 102    -0.127177141274E+04   -0.59118E+00   -0.21809E-01  2225   0.107E+00    0.194E+01
RMM: 103    -0.127209681022E+04   -0.32540E+00   -0.90264E-02  2463   0.537E-01    0.193E+01
RMM: 104    -0.127226034556E+04   -0.16354E+00   -0.40380E-02  2435   0.371E-01    0.201E+01
RMM: 105    -0.127230277041E+04   -0.42425E-01   -0.21153E-02  2557   0.232E-01    0.201E+01
RMM: 106    -0.127290312719E+04   -0.60036E+00   -0.12082E+00  2290   0.204E+00    0.305E+01
RMM: 107    -0.127247354122E+04    0.42959E+00   -0.42813E-01  2265   0.146E+00    0.208E+01
RMM: 108    -0.127277072365E+04   -0.29718E+00   -0.19293E-01  2349   0.913E-01    0.194E+01
RMM: 109    -0.127301211852E+04   -0.24139E+00   -0.74282E-02  2427   0.528E-01    0.189E+01
RMM: 110    -0.127303765900E+04   -0.25540E-01   -0.62214E-02  2335   0.478E-01    0.178E+01
RMM: 111    -0.127285138261E+04    0.18628E+00   -0.16908E-01  2271   0.788E-01    0.175E+01
RMM: 112    -0.127298905017E+04   -0.13767E+00   -0.94869E-02  2426   0.611E-01    0.180E+01
RMM: 113    -0.127318592602E+04   -0.19688E+00   -0.61458E-02  2321   0.456E-01    0.183E+01
RMM: 114    -0.127317333660E+04    0.12589E-01   -0.59756E-02  2451   0.435E-01    0.151E+01
RMM: 115    -0.127343140173E+04   -0.25807E+00   -0.11632E-01  2274   0.629E-01    0.112E+01
RMM: 116    -0.127409059157E+04   -0.65919E+00   -0.22320E-01  2314   0.895E-01    0.145E+01
RMM: 117    -0.127416070106E+04   -0.70109E-01   -0.64653E-02  2444   0.526E-01    0.150E+01
RMM: 118    -0.127412991587E+04    0.30785E-01   -0.21810E-02  2557   0.260E-01    0.146E+01
RMM: 119    -0.127404994894E+04    0.79967E-01   -0.66498E-02  2317   0.482E-01    0.106E+01
RMM: 120    -0.127427824625E+04   -0.22830E+00   -0.65334E-02  2293   0.499E-01
   1 F= -.12830229E+04 E0= -.12830102E+04  d E =-.128302E+04  mag=    36.0651
       N       E                     dE             d eps       ncg     rms          rms(c)
DAV:   1    -0.126971128367E+04    0.43387E+01   -0.11190E+03  2220   0.749E+01    0.183E+01
RMM:   2    -0.129957389769E+04   -0.29863E+02   -0.48998E+01  2364   0.154E+01    0.850E+01
RMM:   3    -0.127588119423E+04    0.23693E+02   -0.17103E+01  2491   0.970E+00    0.326E+01
RMM:   4    -0.127704488941E+04   -0.11637E+01   -0.49994E+00  2647   0.462E+00    0.384E+01
RMM:   5    -0.127376577679E+04    0.32791E+01   -0.25058E+00  2438   0.339E+00    0.244E+01
RMM:   6    -0.127401680404E+04   -0.25103E+00   -0.15187E+00  2455   0.249E+00    0.259E+01
RMM:   7    -0.127371753001E+04    0.29927E+00   -0.80775E-01  2443   0.189E+00    0.175E+01
RMM:   8    -0.127380436181E+04   -0.86832E-01   -0.53475E-01  2424   0.149E+00    0.158E+01
RMM:   9    -0.127419454223E+04   -0.39018E+00   -0.50454E-01  2381   0.140E+00    0.169E+01
RMM:  10    -0.127386924961E+04    0.32529E+00   -0.46069E-01  2337   0.141E+00    0.995E+00
RMM:  11    -0.127397541021E+04   -0.10616E+00   -0.28487E-01  2426   0.106E+00    0.104E+01
RMM:  12    -0.127406557724E+04   -0.90167E-01   -0.28036E-01  2439   0.106E+00    0.107E+01
RMM:  13    -0.127393282667E+04    0.13275E+00   -0.20832E-01  2455   0.955E-01    0.716E+00
RMM:  14    -0.127411036760E+04   -0.17754E+00   -0.28606E-01  2364   0.108E+00    0.844E+00
RMM:  15    -0.127409551141E+04    0.14856E-01   -0.22162E-01  2498   0.965E-01    0.479E+00
RMM:  16    -0.127425788551E+04   -0.16237E+00   -0.13561E-01  2472   0.739E-01    0.661E+00
RMM:  17    -0.127426338515E+04   -0.54996E-02   -0.10035E-01  2439   0.633E-01    0.373E+00
RMM:  18    -0.127436637361E+04   -0.10299E+00   -0.66697E-02  2421   0.497E-01    0.420E+00
RMM:  19    -0.127443841986E+04   -0.72046E-01   -0.41942E-02  2404   0.408E-01    0.293E+00
RMM:  20    -0.127454993358E+04   -0.11151E+00   -0.36739E-02  2314   0.396E-01    0.234E+00
RMM:  21    -0.127463616762E+04   -0.86234E-01   -0.22905E-02  2450   0.292E-01    0.189E+00
RMM:  22    -0.127473628827E+04   -0.10012E+00   -0.11621E-02  2385   0.194E-01    0.138E+00
RMM:  23    -0.127480200031E+04   -0.65712E-01   -0.66773E-03  2457   0.147E-01    0.138E+00
RMM:  24    -0.127486734264E+04   -0.65342E-01   -0.50030E-03  2345   0.128E-01    0.108E+00
RMM:  25    -0.127491571798E+04   -0.48375E-01   -0.41213E-03  2485   0.114E-01    0.955E-01
RMM:  26    -0.127501378531E+04   -0.98067E-01   -0.46050E-03  2330   0.108E-01    0.677E-01
RMM:  27    -0.127510984340E+04   -0.96058E-01   -0.43984E-03  2563   0.945E-02    0.807E-01
RMM:  28    -0.127514824685E+04   -0.38403E-01   -0.17575E-03  2603   0.676E-02    0.692E-01
RMM:  29    -0.127520727095E+04   -0.59024E-01   -0.16632E-03  2464   0.533E-02    0.540E-01
RMM:  30    -0.127529013652E+04   -0.82866E-01   -0.25769E-03  2487   0.629E-02    0.567E-01
RMM:  31    -0.127532419527E+04   -0.34059E-01   -0.12496E-03  2491   0.577E-02    0.576E-01
RMM:  32    -0.127538800724E+04   -0.63812E-01   -0.19952E-03  2382   0.515E-02    0.404E-01
RMM:  33    -0.127546282084E+04   -0.74814E-01   -0.30296E-03  2614   0.535E-02    0.213E-01
RMM:  34    -0.127551199966E+04   -0.49179E-01   -0.23305E-03  2559   0.474E-02    0.175E-01
RMM:  35    -0.127554177482E+04   -0.29775E-01   -0.15675E-03  2630   0.402E-02    0.164E-01
RMM:  36    -0.127555459303E+04   -0.12818E-01   -0.62974E-04  2602   0.249E-02    0.127E-01
RMM:  37    -0.127556591524E+04   -0.11322E-01   -0.55481E-04  2490   0.230E-02    0.101E-01
RMM:  38    -0.127557321085E+04   -0.72956E-02   -0.39238E-04  2522   0.196E-02    0.113E-01
RMM:  39    -0.127557865019E+04   -0.54393E-02   -0.36925E-04  2494   0.174E-02    0.655E-02
RMM:  40    -0.127558064924E+04   -0.19991E-02   -0.13682E-04  2372   0.124E-02    0.580E-02
RMM:  41    -0.127558162224E+04   -0.97300E-03   -0.64609E-05  2273   0.768E-03    0.409E-02
RMM:  42    -0.127558252491E+04   -0.90267E-03   -0.53321E-05  2210   0.713E-03    0.247E-02
RMM:  43    -0.127558297623E+04   -0.45132E-03   -0.34931E-05  2159   0.550E-03    0.224E-02
RMM:  44    -0.127558309583E+04   -0.11959E-03   -0.10000E-05  1810   0.411E-03    0.246E-02
RMM:  45    -0.127558314328E+04   -0.47450E-04   -0.43310E-06  1599   0.263E-03    0.142E-02
RMM:  46    -0.127558320671E+04   -0.63438E-04   -0.42126E-06  1580   0.242E-03    0.886E-03
RMM:  47    -0.127558324459E+04   -0.37879E-04   -0.27926E-06  1485   0.198E-03    0.351E-03
RMM:  48    -0.127558325631E+04   -0.11717E-04   -0.12496E-06  1302   0.164E-03    0.386E-03
RMM:  49    -0.127558326777E+04   -0.11457E-04   -0.93766E-07  1259   0.128E-03    0.200E-03
RMM:  50    -0.127558327860E+04   -0.10833E-04   -0.79110E-07  1213   0.116E-03    0.178E-03
RMM:  51    -0.127558328560E+04   -0.70021E-05   -0.60297E-07  1146   0.985E-04    0.134E-03
RMM:  52    -0.127558329158E+04   -0.59761E-05   -0.49533E-07  1120   0.871E-04    0.599E-04
RMM:  53    -0.127558329600E+04   -0.44192E-05   -0.40503E-07  1088   0.791E-04    0.705E-04
RMM:  54    -0.127558329894E+04   -0.29418E-05   -0.31251E-07  1016   0.710E-04    0.427E-04
RMM:  55    -0.127558330201E+04   -0.30668E-05   -0.28636E-07  1002   0.649E-04    0.328E-04
RMM:  56    -0.127558330418E+04   -0.21733E-05   -0.23672E-07  1034   0.618E-04    0.611E-04
RMM:  57    -0.127558330543E+04   -0.12508E-05   -0.18054E-07   958   0.558E-04    0.457E-04
RMM:  58    -0.127558330641E+04   -0.97913E-06   -0.15383E-07   947   0.507E-04
   2 F= -.12843756E+04 E0= -.12843583E+04  d E =-.135269E+01  mag=    39.0046
       N       E                     dE             d eps       ncg     rms          rms(c)
DAV:   1    -0.127705128959E+04   -0.14680E+01   -0.10790E+02  2244   0.234E+01    0.407E+00
RMM:   2    -0.127731426653E+04   -0.26298E+00   -0.29666E+00  2613   0.344E+00    0.369E+00
RMM:   3    -0.127780213900E+04   -0.48787E+00   -0.49675E-01  2579   0.154E+00    0.173E+01
RMM:   4    -0.127726000041E+04    0.54214E+00   -0.25049E-01  2636   0.105E+00    0.396E+00
RMM:   5    -0.127730783907E+04   -0.47839E-01   -0.94460E-02  2464   0.671E-01    0.319E+00
RMM:   6    -0.127730339388E+04    0.44452E-02   -0.40037E-02  2522   0.410E-01    0.235E+00
RMM:   7    -0.127734199403E+04   -0.38600E-01   -0.37016E-02  2551   0.365E-01    0.632E+00
RMM:   8    -0.127729583552E+04    0.46159E-01   -0.31663E-02  2428   0.348E-01    0.291E+00
RMM:   9    -0.127730341820E+04   -0.75827E-02   -0.20142E-02  2340   0.306E-01    0.248E+00
RMM:  10    -0.127730132965E+04    0.20886E-02   -0.96401E-03  2410   0.198E-01    0.189E+00
RMM:  11    -0.127729700539E+04    0.43243E-02   -0.90771E-03  2381   0.198E-01    0.121E+00
RMM:  12    -0.127730237888E+04   -0.53735E-02   -0.11974E-02  2407   0.225E-01    0.164E+00
RMM:  13    -0.127730092621E+04    0.14527E-02   -0.94501E-03  2511   0.196E-01    0.130E+00
RMM:  14    -0.127729833529E+04    0.25909E-02   -0.47389E-03  2426   0.147E-01    0.728E-01
RMM:  15    -0.127729875445E+04   -0.41916E-03   -0.16914E-03  2452   0.839E-02    0.635E-01
RMM:  16    -0.127729841014E+04    0.34432E-03   -0.86727E-04  2403   0.642E-02    0.424E-01
RMM:  17    -0.127729841895E+04   -0.88189E-05   -0.35708E-04  2439   0.391E-02    0.259E-01
RMM:  18    -0.127729845691E+04   -0.37955E-04   -0.18170E-04  2409   0.294E-02    0.132E-01
RMM:  19    -0.127729854916E+04   -0.92247E-04   -0.96459E-05  2261   0.202E-02    0.131E-01
RMM:  20    -0.127729857277E+04   -0.23611E-04   -0.55366E-05  2117   0.164E-02    0.103E-01
RMM:  21    -0.127729860135E+04   -0.28585E-04   -0.38800E-05  1981   0.127E-02    0.734E-02
RMM:  22    -0.127729863471E+04   -0.33361E-04   -0.31652E-05  1911   0.114E-02    0.761E-02
RMM:  23    -0.127729864685E+04   -0.12137E-04   -0.19443E-05  1729   0.951E-03    0.555E-02
RMM:  24    -0.127729866577E+04   -0.18923E-04   -0.70328E-06  1609   0.603E-03    0.336E-02
RMM:  25    -0.127729868323E+04   -0.17460E-04   -0.52110E-06  1530   0.492E-03    0.358E-02
RMM:  26    -0.127729869409E+04   -0.10855E-04   -0.39970E-06  1491   0.444E-03    0.216E-02
RMM:  27    -0.127729871605E+04   -0.21966E-04   -0.35624E-06  1480   0.391E-03    0.195E-02
RMM:  28    -0.127729873493E+04   -0.18878E-04   -0.28384E-06  1437   0.360E-03    0.163E-02
RMM:  29    -0.127729875143E+04   -0.16500E-04   -0.17399E-06  1409   0.276E-03    0.160E-02
RMM:  30    -0.127729876027E+04   -0.88388E-05   -0.12909E-06  1367   0.250E-03    0.989E-03
RMM:  31    -0.127729877338E+04   -0.13112E-04   -0.83117E-07  1300   0.180E-03    0.938E-03
RMM:  32    -0.127729878490E+04   -0.11514E-04   -0.66275E-07  1253   0.153E-03    0.577E-03
RMM:  33    -0.127729879578E+04   -0.10880E-04   -0.56998E-07  1198   0.133E-03    0.344E-03
RMM:  34    -0.127729880725E+04   -0.11469E-04   -0.51576E-07  1198   0.119E-03    0.276E-03
RMM:  35    -0.127729881790E+04   -0.10647E-04   -0.47492E-07  1202   0.983E-04    0.219E-03
RMM:  36    -0.127729882702E+04   -0.91265E-05   -0.39916E-07  1143   0.890E-04    0.167E-03
RMM:  37    -0.127729883615E+04   -0.91256E-05   -0.41419E-07  1160   0.812E-04    0.186E-03
RMM:  38    -0.127729884286E+04   -0.67170E-05   -0.35553E-07  1104   0.795E-04    0.196E-03
RMM:  39    -0.127729884871E+04   -0.58439E-05   -0.35550E-07  1093   0.725E-04    0.106E-03
RMM:  40    -0.127729885205E+04   -0.33421E-05   -0.27366E-07  1042   0.709E-04    0.564E-04
RMM:  41    -0.127729885405E+04   -0.20037E-05   -0.20699E-07   974   0.582E-04    0.463E-04
RMM:  42    -0.127729885589E+04   -0.18370E-05   -0.16666E-07   956   0.553E-04    0.320E-04
RMM:  43    -0.127729885698E+04   -0.10938E-05   -0.13512E-07   915   0.492E-04    0.299E-04
RMM:  44    -0.127729885740E+04   -0.41691E-06   -0.93277E-08   848   0.455E-04
   3 F= -.12860763E+04 E0= -.12860589E+04  d E =-.305345E+01  mag=    39.0078
       N       E                     dE             d eps       ncg     rms          rms(c)
DAV:   1    -0.127773567013E+04   -0.43681E+00   -0.12403E+02  2220   0.252E+01    0.418E+00
RMM:   2    -0.127803458972E+04   -0.29892E+00   -0.34405E+00  2616   0.368E+00    0.375E+00
RMM:   3    -0.127855416523E+04   -0.51958E+00   -0.52433E-01  2563   0.158E+00    0.177E+01
RMM:   4    -0.127796602071E+04    0.58814E+00   -0.25834E-01  2663   0.108E+00    0.357E+00
RMM:   5    -0.127803187481E+04   -0.65854E-01   -0.95791E-02  2457   0.685E-01    0.348E+00
RMM:   6    -0.127802075375E+04    0.11121E-01   -0.37564E-02  2524   0.405E-01    0.210E+00
RMM:   7    -0.127804100157E+04   -0.20248E-01   -0.38357E-02  2529   0.388E-01    0.348E+00
RMM:   8    -0.127802816887E+04    0.12833E-01   -0.26819E-02  2480   0.334E-01    0.350E+00
RMM:   9    -0.127801877432E+04    0.93945E-02   -0.13987E-02  2424   0.239E-01    0.255E+00
RMM:  10    -0.127801644212E+04    0.23322E-02   -0.11091E-02  2359   0.225E-01    0.187E+00
RMM:  11    -0.127801763041E+04   -0.11883E-02   -0.96228E-03  2390   0.200E-01    0.213E+00
RMM:  12    -0.127802000575E+04   -0.23753E-02   -0.14308E-02  2412   0.241E-01    0.216E+00
RMM:  13    -0.127801775250E+04    0.22532E-02   -0.10345E-02  2435   0.221E-01    0.131E+00
RMM:  14    -0.127801634212E+04    0.14104E-02   -0.52362E-03  2415   0.153E-01    0.896E-01
RMM:  15    -0.127801656629E+04   -0.22417E-03   -0.22975E-03  2458   0.951E-02    0.658E-01
RMM:  16    -0.127801620825E+04    0.35804E-03   -0.11954E-03  2367   0.753E-02    0.410E-01
RMM:  17    -0.127801616128E+04    0.46965E-04   -0.46501E-04  2481   0.442E-02    0.221E-01
RMM:  18    -0.127801621751E+04   -0.56225E-04   -0.20872E-04  2460   0.310E-02    0.155E-01
RMM:  19    -0.127801628232E+04   -0.64814E-04   -0.11320E-04  2300   0.226E-02    0.155E-01
RMM:  20    -0.127801628208E+04    0.23592E-06   -0.62141E-05  2189   0.168E-02    0.855E-02
RMM:  21    -0.127801631645E+04   -0.34362E-04   -0.36833E-05  1980   0.126E-02    0.794E-02
RMM:  22    -0.127801635631E+04   -0.39860E-04   -0.30626E-05  1914   0.107E-02    0.754E-02
RMM:  23    -0.127801637508E+04   -0.18769E-04   -0.17370E-05  1695   0.921E-03    0.490E-02
RMM:  24    -0.127801639493E+04   -0.19852E-04   -0.54143E-06  1589   0.521E-03    0.398E-02
RMM:  25    -0.127801640807E+04   -0.13141E-04   -0.47497E-06  1513   0.476E-03    0.373E-02
RMM:  26    -0.127801642684E+04   -0.18771E-04   -0.43259E-06  1496   0.430E-03    0.254E-02
RMM:  27    -0.127801645035E+04   -0.23506E-04   -0.39581E-06  1493   0.414E-03    0.164E-02
RMM:  28    -0.127801648468E+04   -0.34337E-04   -0.30535E-06  1472   0.338E-03    0.136E-02
RMM:  29    -0.127801649497E+04   -0.10286E-04   -0.18245E-06  1390   0.291E-03    0.145E-02
RMM:  30    -0.127801650498E+04   -0.10015E-04   -0.11888E-06  1346   0.218E-03    0.114E-02
RMM:  31    -0.127801651423E+04   -0.92445E-05   -0.85817E-07  1293   0.194E-03    0.107E-02
RMM:  32    -0.127801653219E+04   -0.17964E-04   -0.75619E-07  1255   0.146E-03    0.470E-03
RMM:  33    -0.127801655082E+04   -0.18632E-04   -0.73228E-07  1262   0.139E-03    0.302E-03
RMM:  34    -0.127801656251E+04   -0.11681E-04   -0.59771E-07  1209   0.117E-03    0.524E-03
RMM:  35    -0.127801657136E+04   -0.88521E-05   -0.46186E-07  1169   0.100E-03    0.349E-03
RMM:  36    -0.127801658204E+04   -0.10678E-04   -0.45556E-07  1176   0.919E-04    0.173E-03
RMM:  37    -0.127801659200E+04   -0.99616E-05   -0.45220E-07  1159   0.913E-04    0.252E-03
RMM:  38    -0.127801659744E+04   -0.54427E-05   -0.34922E-07  1100   0.807E-04    0.238E-03
RMM:  39    -0.127801660332E+04   -0.58845E-05   -0.32654E-07  1085   0.719E-04    0.863E-04
RMM:  40    -0.127801660816E+04   -0.48392E-05   -0.29587E-07  1086   0.701E-04    0.798E-04
RMM:  41    -0.127801661070E+04   -0.25346E-05   -0.23132E-07  1022   0.624E-04    0.661E-04
RMM:  42    -0.127801661244E+04   -0.17397E-05   -0.17865E-07   965   0.558E-04    0.561E-04
RMM:  43    -0.127801661364E+04   -0.11978E-05   -0.14209E-07   920   0.506E-04    0.253E-04
RMM:  44    -0.127801661423E+04   -0.59887E-06   -0.10459E-07   844   0.462E-04
   4 F= -.12867783E+04 E0= -.12867608E+04  d E =-.375545E+01  mag=    39.0117
       N       E                     dE             d eps       ncg     rms          rms(c)
DAV:   1    -0.127594323047E+04    0.20734E+01   -0.63837E+02  2160   0.558E+01    0.940E+00
RMM:   2    -0.127830027844E+04   -0.23570E+01   -0.21510E+01  2654   0.961E+00    0.187E+01
RMM:   3    -0.127965707287E+04   -0.13568E+01   -0.37908E+00  2650   0.412E+00    0.273E+01
RMM:   4    -0.127858242600E+04    0.10746E+01   -0.14047E+00  2641   0.246E+00    0.192E+01
RMM:   5    -0.127787242351E+04    0.71000E+00   -0.53720E-01  2559   0.147E+00    0.672E+00
RMM:   6    -0.127811742710E+04   -0.24500E+00   -0.33024E-01  2518   0.109E+00    0.110E+01
RMM:   7    -0.127802110170E+04    0.96325E-01   -0.20214E-01  2604   0.886E-01    0.815E+00
RMM:   8    -0.127802453668E+04   -0.34350E-02   -0.18275E-01  2467   0.839E-01    0.710E+00
RMM:   9    -0.127799047108E+04    0.34066E-01   -0.19102E-01  2504   0.876E-01    0.547E+00
RMM:  10    -0.127799548250E+04   -0.50114E-02   -0.14573E-01  2514   0.740E-01    0.626E+00
RMM:  11    -0.127798965804E+04    0.58245E-02   -0.81838E-02  2540   0.563E-01    0.719E+00
RMM:  12    -0.127796307571E+04    0.26582E-01   -0.44803E-02  2467   0.421E-01    0.626E+00
RMM:  13    -0.127793316247E+04    0.29913E-01   -0.30217E-02  2347   0.381E-01    0.393E+00
RMM:  14    -0.127795563755E+04   -0.22475E-01   -0.42772E-02  2425   0.393E-01    0.373E+00
RMM:  15    -0.127796547176E+04   -0.98342E-02   -0.40808E-02  2374   0.439E-01    0.349E+00
RMM:  16    -0.127795471957E+04    0.10752E-01   -0.15048E-02  2327   0.260E-01    0.276E+00
RMM:  17    -0.127794308802E+04    0.11632E-01   -0.64373E-03  2410   0.162E-01    0.130E+00
RMM:  18    -0.127794814888E+04   -0.50609E-02   -0.58983E-03  2458   0.149E-01    0.121E+00
RMM:  19    -0.127794831160E+04   -0.16272E-03   -0.44436E-03  2422   0.142E-01    0.957E-01
RMM:  20    -0.127794766895E+04    0.64265E-03   -0.19049E-03  2363   0.897E-02    0.463E-01
RMM:  21    -0.127794802019E+04   -0.35124E-03   -0.11193E-03  2424   0.633E-02    0.323E-01
RMM:  22    -0.127794848138E+04   -0.46119E-03   -0.58187E-04  2460   0.462E-02    0.355E-01
RMM:  23    -0.127794848617E+04   -0.47954E-05   -0.33564E-04  2410   0.358E-02    0.249E-01
RMM:  24    -0.127794886024E+04   -0.37407E-03   -0.14343E-04  2466   0.226E-02    0.210E-01
RMM:  25    -0.127794924950E+04   -0.38926E-03   -0.10603E-04  2375   0.193E-02    0.155E-01
RMM:  26    -0.127794948991E+04   -0.24041E-03   -0.91711E-05  2225   0.182E-02    0.154E-01
RMM:  27    -0.127794956282E+04   -0.72915E-04   -0.51869E-05  2033   0.148E-02    0.796E-02
RMM:  28    -0.127794969867E+04   -0.13584E-03   -0.19473E-05  1917   0.852E-03    0.363E-02
RMM:  29    -0.127794988623E+04   -0.18757E-03   -0.13859E-05  1825   0.660E-03    0.465E-02
RMM:  30    -0.127794998325E+04   -0.97019E-04   -0.11017E-05  1690   0.621E-03    0.446E-02
RMM:  31    -0.127795013150E+04   -0.14824E-03   -0.10926E-05  1768   0.565E-03    0.246E-02
RMM:  32    -0.127795028872E+04   -0.15723E-03   -0.10181E-05  1820   0.457E-03    0.155E-02
RMM:  33    -0.127795038851E+04   -0.99782E-04   -0.55224E-06  1632   0.330E-03    0.240E-02
RMM:  34    -0.127795047145E+04   -0.82947E-04   -0.44417E-06  1590   0.285E-03    0.211E-02
RMM:  35    -0.127795056176E+04   -0.90311E-04   -0.50312E-06  1640   0.264E-03    0.969E-03
RMM:  36    -0.127795062806E+04   -0.66298E-04   -0.36282E-06  1519   0.240E-03    0.646E-03
RMM:  37    -0.127795069325E+04   -0.65183E-04   -0.42190E-06  1562   0.218E-03    0.450E-03
RMM:  38    -0.127795074772E+04   -0.54474E-04   -0.37587E-06  1552   0.214E-03    0.461E-03
RMM:  39    -0.127795078124E+04   -0.33525E-04   -0.26763E-06  1427   0.178E-03    0.466E-03
RMM:  40    -0.127795080678E+04   -0.25536E-04   -0.19430E-06  1330   0.167E-03    0.218E-03
RMM:  41    -0.127795082781E+04   -0.21026E-04   -0.21217E-06  1336   0.153E-03    0.105E-03
RMM:  42    -0.127795083831E+04   -0.10501E-04   -0.12217E-06  1224   0.140E-03    0.944E-04
RMM:  43    -0.127795084532E+04   -0.70129E-05   -0.99410E-07  1187   0.117E-03    0.108E-03
RMM:  44    -0.127795084910E+04   -0.37844E-05   -0.64748E-07  1121   0.105E-03    0.516E-04
RMM:  45    -0.127795085119E+04   -0.20824E-05   -0.45837E-07  1057   0.853E-04    0.437E-04
RMM:  46    -0.127795085311E+04   -0.19265E-05   -0.34409E-07  1041   0.757E-04    0.316E-04
RMM:  47    -0.127795085410E+04   -0.98803E-06   -0.24483E-07   983   0.645E-04
   5 F= -.12867590E+04 E0= -.12867425E+04  d E =0.193709E-01  mag=    39.0035
       N       E                     dE             d eps       ncg     rms          rms(c)
DAV:   1    -0.127802755309E+04   -0.76700E-01   -0.16395E+02  2160   0.283E+01    0.456E+00
RMM:   2    -0.127857983771E+04   -0.55228E+00   -0.46849E+00  2628   0.463E+00    0.618E+00
RMM:   3    -0.127879794766E+04   -0.21811E+00   -0.77793E-01  2676   0.186E+00    0.142E+01
RMM:   4    -0.127851761270E+04    0.28033E+00   -0.29963E-01  2664   0.117E+00    0.680E+00
RMM:   5    -0.127854673633E+04   -0.29124E-01   -0.10927E-01  2541   0.706E-01    0.594E+00
RMM:   6    -0.127849573293E+04    0.51003E-01   -0.70713E-02  2498   0.540E-01    0.381E+00
RMM:   7    -0.127849587527E+04   -0.14234E-03   -0.55927E-02  2596   0.468E-01    0.337E+00
RMM:   8    -0.127852605562E+04   -0.30180E-01   -0.46360E-02  2499   0.440E-01    0.508E+00
RMM:   9    -0.127848982999E+04    0.36226E-01   -0.26228E-02  2446   0.345E-01    0.282E+00
RMM:  10    -0.127849004568E+04   -0.21569E-03   -0.12335E-02  2388   0.230E-01    0.208E+00
RMM:  11    -0.127849511236E+04   -0.50667E-02   -0.14092E-02  2445   0.234E-01    0.216E+00
RMM:  12    -0.127849145972E+04    0.36526E-02   -0.15938E-02  2412   0.253E-01    0.121E+00
RMM:  13    -0.127849189826E+04   -0.43854E-03   -0.96979E-03  2405   0.200E-01    0.164E+00
RMM:  14    -0.127849106214E+04    0.83612E-03   -0.59649E-03  2406   0.154E-01    0.153E+00
RMM:  15    -0.127848888789E+04    0.21742E-02   -0.22908E-03  2381   0.102E-01    0.632E-01
RMM:  16    -0.127849008863E+04   -0.12007E-02   -0.14012E-03  2407   0.782E-02    0.417E-01
RMM:  17    -0.127849054485E+04   -0.45622E-03   -0.65351E-04  2373   0.558E-02    0.457E-01
RMM:  18    -0.127849045749E+04    0.87359E-04   -0.48944E-04  2343   0.462E-02    0.413E-01
RMM:  19    -0.127849027115E+04    0.18634E-03   -0.41729E-04  2359   0.402E-02    0.235E-01
RMM:  20    -0.127849049621E+04   -0.22507E-03   -0.33723E-04  2349   0.392E-02    0.387E-01
RMM:  21    -0.127849047928E+04    0.16937E-04   -0.14481E-04  2321   0.278E-02    0.304E-01
RMM:  22    -0.127849044246E+04    0.36812E-04   -0.60841E-05  2117   0.156E-02    0.206E-01
RMM:  23    -0.127849052508E+04   -0.82612E-04   -0.39863E-05  2021   0.131E-02    0.105E-01
RMM:  24    -0.127849063237E+04   -0.10730E-03   -0.27645E-05  1973   0.116E-02    0.716E-02
RMM:  25    -0.127849070744E+04   -0.75070E-04   -0.18217E-05  1887   0.852E-03    0.670E-02
RMM:  26    -0.127849073638E+04   -0.28938E-04   -0.10490E-05  1658   0.679E-03    0.388E-02
RMM:  27    -0.127849078981E+04   -0.53425E-04   -0.59678E-06  1612   0.498E-03    0.277E-02
RMM:  28    -0.127849082383E+04   -0.34023E-04   -0.33128E-06  1482   0.399E-03    0.292E-02
RMM:  29    -0.127849087157E+04   -0.47742E-04   -0.31235E-06  1514   0.318E-03    0.205E-02
RMM:  30    -0.127849089391E+04   -0.22335E-04   -0.20355E-06  1438   0.296E-03    0.157E-02
RMM:  31    -0.127849093499E+04   -0.41083E-04   -0.23201E-06  1428   0.248E-03    0.742E-03
RMM:  32    -0.127849096417E+04   -0.29176E-04   -0.15222E-06  1329   0.210E-03    0.604E-03
RMM:  33    -0.127849098999E+04   -0.25821E-04   -0.14236E-06  1309   0.181E-03    0.454E-03
RMM:  34    -0.127849101459E+04   -0.24607E-04   -0.12923E-06  1287   0.167E-03    0.313E-03
RMM:  35    -0.127849103197E+04   -0.17373E-04   -0.11185E-06  1234   0.142E-03    0.427E-03
RMM:  36    -0.127849104831E+04   -0.16345E-04   -0.98469E-07  1225   0.127E-03    0.413E-03
RMM:  37    -0.127849106109E+04   -0.12778E-04   -0.93563E-07  1212   0.117E-03    0.261E-03
RMM:  38    -0.127849107111E+04   -0.10019E-04   -0.82683E-07  1187   0.110E-03    0.171E-03
RMM:  39    -0.127849107790E+04   -0.67855E-05   -0.71334E-07  1167   0.104E-03    0.815E-04
RMM:  40    -0.127849108152E+04   -0.36273E-05   -0.55087E-07  1119   0.935E-04    0.623E-04
RMM:  41    -0.127849108346E+04   -0.19356E-05   -0.39791E-07  1044   0.809E-04    0.639E-04
RMM:  42    -0.127849108469E+04   -0.12324E-05   -0.29164E-07  1001   0.692E-04    0.605E-04
RMM:  43    -0.127849108540E+04   -0.70503E-06   -0.20503E-07   920   0.603E-04
   6 F= -.12872764E+04 E0= -.12872594E+04  d E =-.498057E+00  mag=    39.0072
       N       E                     dE             d eps       ncg     rms          rms(c)
DAV:   1    -0.127601262448E+04    0.24785E+01   -0.35706E+02  2256   0.378E+01    0.803E+00
RMM:   2    -0.127729411494E+04   -0.12815E+01   -0.11444E+01  2713   0.637E+00    0.168E+01
RMM:   3    -0.127756396076E+04   -0.26985E+00   -0.17868E+00  2612   0.282E+00    0.170E+01
RMM:   4    -0.127759849609E+04   -0.34535E-01   -0.83760E-01  2560   0.181E+00    0.155E+01
RMM:   5    -0.127693561549E+04    0.66288E+00   -0.38035E-01  2545   0.126E+00    0.557E+00
RMM:   6    -0.127731884304E+04   -0.38323E+00   -0.37143E-01  2482   0.112E+00    0.172E+01
RMM:   7    -0.127703477944E+04    0.28406E+00   -0.29794E-01  2559   0.104E+00    0.845E+00
RMM:   8    -0.127707699999E+04   -0.42221E-01   -0.29093E-01  2403   0.107E+00    0.805E+00
RMM:   9    -0.127702605294E+04    0.50947E-01   -0.21477E-01  2432   0.893E-01    0.587E+00
RMM:  10    -0.127695147192E+04    0.74581E-01   -0.11715E-01  2381   0.699E-01    0.438E+00
RMM:  11    -0.127695696143E+04   -0.54895E-02   -0.58104E-02  2407   0.486E-01    0.382E+00
RMM:  12    -0.127694733605E+04    0.96254E-02   -0.33099E-02  2398   0.361E-01    0.278E+00
RMM:  13    -0.127694814391E+04   -0.80786E-03   -0.28059E-02  2384   0.330E-01    0.225E+00
RMM:  14    -0.127695106770E+04   -0.29238E-02   -0.15586E-02  2386   0.270E-01    0.221E+00
RMM:  15    -0.127694524265E+04    0.58251E-02   -0.80003E-03  2428   0.184E-01    0.138E+00
RMM:  16    -0.127694297671E+04    0.22659E-02   -0.31412E-03  2419   0.116E-01    0.705E-01
RMM:  17    -0.127694450272E+04   -0.15260E-02   -0.36348E-03  2410   0.118E-01    0.899E-01
RMM:  18    -0.127694539492E+04   -0.89220E-03   -0.28536E-03  2377   0.113E-01    0.120E+00
RMM:  19    -0.127694472879E+04    0.66612E-03   -0.19486E-03  2419   0.882E-02    0.920E-01
RMM:  20    -0.127694423673E+04    0.49206E-03   -0.10085E-03  2412   0.660E-02    0.490E-01
RMM:  21    -0.127694507599E+04   -0.83927E-03   -0.60024E-04  2476   0.465E-02    0.290E-01
RMM:  22    -0.127694553228E+04   -0.45629E-03   -0.47480E-04  2384   0.439E-02    0.275E-01
RMM:  23    -0.127694576721E+04   -0.23493E-03   -0.22924E-04  2327   0.306E-02    0.189E-01
RMM:  24    -0.127694600651E+04   -0.23930E-03   -0.13180E-04  2339   0.226E-02    0.168E-01
RMM:  25    -0.127694634847E+04   -0.34196E-03   -0.13859E-04  2278   0.219E-02    0.199E-01
RMM:  26    -0.127694649332E+04   -0.14484E-03   -0.89466E-05  2193   0.184E-02    0.957E-02
RMM:  27    -0.127694680333E+04   -0.31002E-03   -0.57553E-05  2133   0.133E-02    0.575E-02
RMM:  28    -0.127694696526E+04   -0.16193E-03   -0.45793E-05  2034   0.118E-02    0.771E-02
RMM:  29    -0.127694706761E+04   -0.10235E-03   -0.31172E-05  1933   0.106E-02    0.753E-02
RMM:  30    -0.127694718534E+04   -0.11773E-03   -0.28494E-05  1882   0.994E-03    0.592E-02
RMM:  31    -0.127694739520E+04   -0.20986E-03   -0.25230E-05  1954   0.836E-03    0.502E-02
RMM:  32    -0.127694752624E+04   -0.13104E-03   -0.15279E-05  1927   0.556E-03    0.250E-02
RMM:  33    -0.127694758234E+04   -0.56103E-04   -0.47970E-06  1595   0.375E-03    0.260E-02
RMM:  34    -0.127694762898E+04   -0.46640E-04   -0.32119E-06  1501   0.308E-03    0.150E-02
RMM:  35    -0.127694770968E+04   -0.80692E-04   -0.48599E-06  1634   0.287E-03    0.157E-02
RMM:  36    -0.127694775293E+04   -0.43257E-04   -0.24102E-06  1406   0.224E-03    0.500E-03
RMM:  37    -0.127694778791E+04   -0.34978E-04   -0.20398E-06  1352   0.195E-03    0.433E-03
RMM:  38    -0.127694782027E+04   -0.32357E-04   -0.18302E-06  1316   0.174E-03    0.544E-03
RMM:  39    -0.127694785088E+04   -0.30611E-04   -0.20800E-06  1357   0.167E-03    0.226E-03
RMM:  40    -0.127694787680E+04   -0.25919E-04   -0.19802E-06  1358   0.159E-03    0.391E-03
RMM:  41    -0.127694789483E+04   -0.18035E-04   -0.15981E-06  1283   0.148E-03    0.289E-03
RMM:  42    -0.127694790906E+04   -0.14232E-04   -0.14042E-06  1255   0.138E-03    0.110E-03
RMM:  43    -0.127694792098E+04   -0.11920E-04   -0.13821E-06  1249   0.133E-03    0.774E-04
RMM:  44    -0.127694792640E+04   -0.54189E-05   -0.93909E-07  1164   0.122E-03    0.825E-04
RMM:  45    -0.127694792925E+04   -0.28490E-05   -0.68333E-07  1121   0.102E-03    0.646E-04
RMM:  46    -0.127694793115E+04   -0.18971E-05   -0.49234E-07  1081   0.899E-04    0.425E-04
RMM:  47    -0.127694793219E+04   -0.10387E-05   -0.34141E-07  1003   0.750E-04    0.370E-04
RMM:  48    -0.127694793276E+04   -0.57224E-06   -0.23005E-07   951   0.644E-04
   7 F= -.12857587E+04 E0= -.12857420E+04  d E =0.151767E+01  mag=    39.0004
       N       E                     dE             d eps       ncg     rms          rms(c)
DAV:   1    -0.127818035268E+04   -0.12324E+01   -0.19644E+02  2268   0.279E+01    0.761E+00
RMM:   2    -0.127883810327E+04   -0.65775E+00   -0.61119E+00  2630   0.489E+00    0.828E+00
RMM:   3    -0.127988364500E+04   -0.10455E+01   -0.13527E+00  2579   0.233E+00    0.253E+01
RMM:   4    -0.127877512371E+04    0.11085E+01   -0.79890E-01  2586   0.181E+00    0.938E+00
RMM:   5    -0.127883847643E+04   -0.63353E-01   -0.35354E-01  2452   0.124E+00    0.895E+00
RMM:   6    -0.127866605950E+04    0.17242E+00   -0.18082E-01  2453   0.877E-01    0.469E+00
RMM:   7    -0.127870958486E+04   -0.43525E-01   -0.12562E-01  2502   0.707E-01    0.692E+00
RMM:   8    -0.127868181155E+04    0.27773E-01   -0.77059E-02  2422   0.588E-01    0.507E+00
RMM:   9    -0.127866890560E+04    0.12906E-01   -0.35411E-02  2385   0.385E-01    0.425E+00
RMM:  10    -0.127866504141E+04    0.38642E-02   -0.21303E-02  2400   0.288E-01    0.328E+00
RMM:  11    -0.127866327186E+04    0.17695E-02   -0.21143E-02  2350   0.303E-01    0.250E+00
RMM:  12    -0.127865942489E+04    0.38470E-02   -0.19068E-02  2371   0.275E-01    0.175E+00
RMM:  13    -0.127865971860E+04   -0.29371E-03   -0.16528E-02  2360   0.262E-01    0.176E+00
RMM:  14    -0.127865787629E+04    0.18423E-02   -0.12476E-02  2372   0.227E-01    0.130E+00
RMM:  15    -0.127865809869E+04   -0.22240E-03   -0.54414E-03  2344   0.158E-01    0.941E-01
RMM:  16    -0.127865834514E+04   -0.24645E-03   -0.30314E-03  2420   0.109E-01    0.822E-01
RMM:  17    -0.127865829811E+04    0.47037E-04   -0.21566E-03  2358   0.946E-02    0.626E-01
RMM:  18    -0.127865897742E+04   -0.67931E-03   -0.19666E-03  2358   0.882E-02    0.631E-01
RMM:  19    -0.127865882024E+04    0.15718E-03   -0.14460E-03  2357   0.763E-02    0.433E-01
RMM:  20    -0.127865915561E+04   -0.33537E-03   -0.60870E-04  2330   0.522E-02    0.355E-01
RMM:  21    -0.127865933363E+04   -0.17802E-03   -0.28990E-04  2326   0.347E-02    0.347E-01
RMM:  22    -0.127865938358E+04   -0.49947E-04   -0.16754E-04  2331   0.248E-02    0.263E-01
RMM:  23    -0.127865956124E+04   -0.17767E-03   -0.13073E-04  2238   0.232E-02    0.155E-01
RMM:  24    -0.127865984697E+04   -0.28572E-03   -0.93695E-05  2265   0.184E-02    0.138E-01
RMM:  25    -0.127865991179E+04   -0.64821E-04   -0.68764E-05  2099   0.168E-02    0.126E-01
RMM:  26    -0.127865996819E+04   -0.56399E-04   -0.24553E-05  1919   0.101E-02    0.448E-02
RMM:  27    -0.127866007540E+04   -0.10721E-03   -0.16808E-05  1777   0.803E-03    0.424E-02
RMM:  28    -0.127866014000E+04   -0.64597E-04   -0.11031E-05  1634   0.674E-03    0.434E-02
RMM:  29    -0.127866021855E+04   -0.78550E-04   -0.92995E-06  1635   0.577E-03    0.381E-02
RMM:  30    -0.127866035419E+04   -0.13564E-03   -0.91814E-06  1720   0.500E-03    0.274E-02
RMM:  31    -0.127866048064E+04   -0.12645E-03   -0.84289E-06  1754   0.432E-03    0.177E-02
RMM:  32    -0.127866058072E+04   -0.10008E-03   -0.63064E-06  1651   0.381E-03    0.185E-02
RMM:  33    -0.127866065746E+04   -0.76742E-04   -0.38878E-06  1537   0.286E-03    0.677E-03
RMM:  34    -0.127866074107E+04   -0.83608E-04   -0.45229E-06  1573   0.258E-03    0.918E-03
RMM:  35    -0.127866080252E+04   -0.61449E-04   -0.35178E-06  1490   0.233E-03    0.417E-03
RMM:  36    -0.127866084939E+04   -0.46868E-04   -0.29507E-06  1437   0.200E-03    0.416E-03
RMM:  37    -0.127866087912E+04   -0.29735E-04   -0.18371E-06  1328   0.180E-03    0.248E-03
RMM:  38    -0.127866090594E+04   -0.26822E-04   -0.19126E-06  1339   0.157E-03    0.220E-03
RMM:  39    -0.127866092257E+04   -0.16631E-04   -0.13748E-06  1263   0.149E-03    0.200E-03
RMM:  40    -0.127866093239E+04   -0.98207E-05   -0.10829E-06  1214   0.127E-03    0.101E-03
RMM:  41    -0.127866093800E+04   -0.56028E-05   -0.76882E-07  1169   0.114E-03    0.718E-04
RMM:  42    -0.127866094175E+04   -0.37485E-05   -0.57556E-07  1105   0.952E-04    0.612E-04
RMM:  43    -0.127866094401E+04   -0.22678E-05   -0.43193E-07  1094   0.856E-04    0.372E-04
RMM:  44    -0.127866094521E+04   -0.12001E-05   -0.30673E-07  1023   0.716E-04    0.382E-04
RMM:  45    -0.127866094609E+04   -0.88004E-06   -0.22355E-07   985   0.627E-04
   8 F= -.12874531E+04 E0= -.12874362E+04  d E =-.176692E+00  mag=    39.0039
       N       E                     dE             d eps       ncg     rms          rms(c)
DAV:   1    -0.127854280758E+04    0.11814E+00   -0.85161E+01  2160   0.194E+01    0.326E+00
RMM:   2    -0.127887626904E+04   -0.33346E+00   -0.20998E+00  2595   0.303E+00    0.825E+00
RMM:   3    -0.127887854164E+04   -0.22726E-02   -0.37775E-01  2569   0.137E+00    0.758E+00
RMM:   4    -0.127887159555E+04    0.69461E-02   -0.16579E-01  2655   0.838E-01    0.699E+00
RMM:   5    -0.127876446988E+04    0.10713E+00   -0.88260E-02  2575   0.588E-01    0.316E+00
RMM:   6    -0.127877988236E+04   -0.15412E-01   -0.40971E-02  2525   0.403E-01    0.258E+00
RMM:   7    -0.127878678080E+04   -0.68984E-02   -0.24943E-02  2581   0.314E-01    0.320E+00
RMM:   8    -0.127877857096E+04    0.82098E-02   -0.19124E-02  2511   0.283E-01    0.237E+00
RMM:   9    -0.127877896421E+04   -0.39325E-03   -0.14286E-02  2471   0.247E-01    0.186E+00
RMM:  10    -0.127877679075E+04    0.21735E-02   -0.11710E-02  2427   0.219E-01    0.163E+00
RMM:  11    -0.127877647484E+04    0.31590E-03   -0.69262E-03  2479   0.168E-01    0.137E+00
RMM:  12    -0.127877509687E+04    0.13780E-02   -0.41659E-03  2429   0.135E-01    0.923E-01
RMM:  13    -0.127877516109E+04   -0.64222E-04   -0.22280E-03  2447   0.997E-02    0.672E-01
RMM:  14    -0.127877526606E+04   -0.10496E-03   -0.12340E-03  2392   0.760E-02    0.486E-01
RMM:  15    -0.127877516520E+04    0.10085E-03   -0.55826E-04  2433   0.492E-02    0.219E-01
RMM:  16    -0.127877537449E+04   -0.20929E-03   -0.27134E-04  2441   0.354E-02    0.176E-01
RMM:  17    -0.127877550255E+04   -0.12806E-03   -0.18391E-04  2424   0.282E-02    0.235E-01
RMM:  18    -0.127877546201E+04    0.40544E-04   -0.11264E-04  2327   0.216E-02    0.823E-02
RMM:  19    -0.127877555883E+04   -0.96827E-04   -0.58546E-05  2064   0.161E-02    0.119E-01
RMM:  20    -0.127877559510E+04   -0.36267E-04   -0.25293E-05  1953   0.111E-02    0.128E-01
RMM:  21    -0.127877558966E+04    0.54386E-05   -0.11192E-05  1604   0.711E-03    0.103E-01
RMM:  22    -0.127877562750E+04   -0.37839E-04   -0.60146E-06  1611   0.497E-03    0.538E-02
RMM:  23    -0.127877570883E+04   -0.81331E-04   -0.98300E-06  1778   0.614E-03    0.281E-02
RMM:  24    -0.127877575086E+04   -0.42030E-04   -0.73097E-06  1620   0.586E-03    0.345E-02
RMM:  25    -0.127877577169E+04   -0.20832E-04   -0.38354E-06  1504   0.437E-03    0.163E-02
RMM:  26    -0.127877579574E+04   -0.24045E-04   -0.15324E-06  1351   0.262E-03    0.176E-02
RMM:  27    -0.127877582008E+04   -0.24343E-04   -0.14014E-06  1356   0.211E-03    0.134E-02
RMM:  28    -0.127877585042E+04   -0.30339E-04   -0.16358E-06  1371   0.208E-03    0.702E-03
RMM:  29    -0.127877586825E+04   -0.17827E-04   -0.13406E-06  1324   0.210E-03    0.909E-03
RMM:  30    -0.127877588453E+04   -0.16277E-04   -0.10914E-06  1277   0.176E-03    0.620E-03
RMM:  31    -0.127877589736E+04   -0.12834E-04   -0.89876E-07  1231   0.155E-03    0.585E-03
RMM:  32    -0.127877590977E+04   -0.12408E-04   -0.77297E-07  1207   0.123E-03    0.361E-03
RMM:  33    -0.127877592284E+04   -0.13067E-04   -0.79094E-07  1196   0.114E-03    0.172E-03
RMM:  34    -0.127877593528E+04   -0.12444E-04   -0.84916E-07  1225   0.111E-03    0.201E-03
RMM:  35    -0.127877594359E+04   -0.83087E-05   -0.73022E-07  1175   0.108E-03    0.155E-03
RMM:  36    -0.127877594901E+04   -0.54192E-05   -0.58807E-07  1129   0.953E-04    0.875E-04
RMM:  37    -0.127877595421E+04   -0.52071E-05   -0.56400E-07  1118   0.899E-04    0.835E-04
RMM:  38    -0.127877595741E+04   -0.31959E-05   -0.44939E-07  1103   0.843E-04    0.489E-04
RMM:  39    -0.127877595933E+04   -0.19184E-05   -0.35443E-07  1049   0.740E-04    0.336E-04
RMM:  40    -0.127877596055E+04   -0.12201E-05   -0.26705E-07  1013   0.664E-04    0.245E-04
RMM:  41    -0.127877596137E+04   -0.82051E-06   -0.20403E-07   958   0.580E-04
   9 F= -.12875742E+04 E0= -.12875575E+04  d E =-.121098E+00  mag=    39.0003
       N       E                     dE             d eps       ncg     rms          rms(c)
DAV:   1    -0.127878179188E+04   -0.58313E-02   -0.67863E+00  2196   0.546E+00    0.925E-01
RMM:   2    -0.127881290800E+04   -0.31116E-01   -0.16910E-01  2553   0.873E-01    0.328E+00
RMM:   3    -0.127880011544E+04    0.12793E-01   -0.30065E-02  2552   0.394E-01    0.232E+00
RMM:   4    -0.127880922720E+04   -0.91118E-02   -0.16242E-02  2579   0.284E-01    0.262E+00
RMM:   5    -0.127879646378E+04    0.12763E-01   -0.69506E-03  2504   0.184E-01    0.434E-01
RMM:   6    -0.127880037545E+04   -0.39117E-02   -0.30846E-03  2473   0.122E-01    0.634E-01
RMM:   7    -0.127880027067E+04    0.10478E-03   -0.19707E-03  2635   0.893E-02    0.720E-01
RMM:   8    -0.127880044062E+04   -0.16995E-03   -0.17856E-03  2501   0.805E-02    0.750E-01
RMM:   9    -0.127880021541E+04    0.22521E-03   -0.15793E-03  2424   0.836E-02    0.482E-01
RMM:  10    -0.127879992572E+04    0.28969E-03   -0.78785E-04  2407   0.588E-02    0.205E-01
RMM:  11    -0.127880000751E+04   -0.81787E-04   -0.26608E-04  2363   0.346E-02    0.189E-01
RMM:  12    -0.127879999011E+04    0.17405E-04   -0.12003E-04  2317   0.227E-02    0.164E-01
RMM:  13    -0.127879996500E+04    0.25103E-04   -0.53692E-05  2027   0.153E-02    0.105E-01
RMM:  14    -0.127879998322E+04   -0.18221E-04   -0.32009E-05  1918   0.112E-02    0.696E-02
RMM:  15    -0.127880000021E+04   -0.16982E-04   -0.18037E-05  1728   0.915E-03    0.345E-02
RMM:  16    -0.127880001722E+04   -0.17011E-04   -0.80349E-06  1616   0.662E-03    0.384E-02
RMM:  17    -0.127880001917E+04   -0.19531E-05   -0.46668E-06  1508   0.496E-03    0.304E-02
RMM:  18    -0.127880002324E+04   -0.40752E-05   -0.22610E-06  1446   0.352E-03    0.130E-02
RMM:  19    -0.127880003187E+04   -0.86270E-05   -0.13192E-06  1355   0.257E-03    0.117E-02
RMM:  20    -0.127880003856E+04   -0.66908E-05   -0.14946E-06  1393   0.263E-03    0.160E-02
RMM:  21    -0.127880004531E+04   -0.67487E-05   -0.11855E-06  1360   0.239E-03    0.822E-03
RMM:  22    -0.127880005157E+04   -0.62632E-05   -0.70188E-07  1304   0.178E-03    0.719E-03
RMM:  23    -0.127880005465E+04   -0.30747E-05   -0.44332E-07  1232   0.141E-03    0.762E-03
RMM:  24    -0.127880005659E+04   -0.19402E-05   -0.30904E-07  1158   0.116E-03    0.563E-03
RMM:  25    -0.127880006107E+04   -0.44763E-05   -0.25404E-07  1161   0.909E-04    0.350E-03
RMM:  26    -0.127880006763E+04   -0.65661E-05   -0.34459E-07  1254   0.933E-04    0.339E-03
RMM:  27    -0.127880007024E+04   -0.26109E-05   -0.27592E-07  1134   0.101E-03    0.360E-03
RMM:  28    -0.127880007305E+04   -0.28049E-05   -0.21684E-07  1061   0.766E-04    0.211E-03
RMM:  29    -0.127880007468E+04   -0.16339E-05   -0.14681E-07   985   0.660E-04    0.135E-03
RMM:  30    -0.127880007646E+04   -0.17798E-05   -0.11872E-07   889   0.518E-04    0.969E-04
RMM:  31    -0.127880007849E+04   -0.20286E-05   -0.11756E-07   982   0.524E-04    0.110E-03
RMM:  32    -0.127880007984E+04   -0.13487E-05   -0.10174E-07   955   0.473E-04    0.794E-04
RMM:  33    -0.127880008122E+04   -0.13810E-05   -0.96803E-08   937   0.440E-04    0.367E-04
RMM:  34    -0.127880008237E+04   -0.11535E-05   -0.91613E-08   924   0.427E-04    0.292E-04
RMM:  35    -0.127880008317E+04   -0.79345E-06   -0.82080E-08   884   0.410E-04
  10 F= -.12875966E+04 E0= -.12875799E+04  d E =-.143536E+00  mag=    39.0007
       N       E                     dE             d eps       ncg     rms          rms(c)
DAV:   1    -0.127879649064E+04    0.35917E-02   -0.34827E+01  2160   0.119E+01    0.232E+00
RMM:   2    -0.127898392712E+04   -0.18744E+00   -0.76763E-01  2566   0.191E+00    0.716E+00
RMM:   3    -0.127892025159E+04    0.63676E-01   -0.18610E-01  2597   0.919E-01    0.446E+00
RMM:   4    -0.127890972856E+04    0.10523E-01   -0.59837E-02  2641   0.536E-01    0.331E+00
RMM:   5    -0.127889472958E+04    0.14999E-01   -0.20974E-02  2659   0.264E-01    0.213E+00
RMM:   6    -0.127890031614E+04   -0.55866E-02   -0.13666E-02  2443   0.231E-01    0.185E+00
RMM:   7    -0.127890069006E+04   -0.37392E-03   -0.83768E-03  2529   0.185E-01    0.169E+00
RMM:   8    -0.127889808061E+04    0.26095E-02   -0.72250E-03  2422   0.174E-01    0.118E+00
RMM:   9    -0.127889893594E+04   -0.85533E-03   -0.42991E-03  2472   0.135E-01    0.843E-01
RMM:  10    -0.127889927219E+04   -0.33625E-03   -0.38616E-03  2422   0.127E-01    0.860E-01
RMM:  11    -0.127889927109E+04    0.10913E-05   -0.20602E-03  2461   0.936E-02    0.780E-01
RMM:  12    -0.127889864930E+04    0.62180E-03   -0.11114E-03  2406   0.696E-02    0.499E-01
RMM:  13    -0.127889887802E+04   -0.22872E-03   -0.65842E-04  2433   0.528E-02    0.420E-01
RMM:  14    -0.127889889269E+04   -0.14676E-04   -0.38335E-04  2382   0.427E-02    0.344E-01
RMM:  15    -0.127889882103E+04    0.71665E-04   -0.15753E-04  2300   0.263E-02    0.190E-01
RMM:  16    -0.127889892819E+04   -0.10716E-03   -0.68829E-05  2276   0.173E-02    0.636E-02
RMM:  17    -0.127889904610E+04   -0.11792E-03   -0.49058E-05  2070   0.158E-02    0.990E-02
RMM:  18    -0.127889906236E+04   -0.16253E-04   -0.28147E-05  1942   0.114E-02    0.520E-02
RMM:  19    -0.127889909652E+04   -0.34162E-04   -0.12859E-05  1694   0.768E-03    0.432E-02
RMM:  20    -0.127889911871E+04   -0.22191E-04   -0.84852E-06  1578   0.640E-03    0.621E-02
RMM:  21    -0.127889913016E+04   -0.11452E-04   -0.48226E-06  1513   0.506E-03    0.394E-02
RMM:  22    -0.127889915123E+04   -0.21063E-04   -0.30389E-06  1455   0.350E-03    0.173E-02
RMM:  23    -0.127889917547E+04   -0.24248E-04   -0.28359E-06  1469   0.356E-03    0.214E-02
RMM:  24    -0.127889918384E+04   -0.83641E-05   -0.16620E-06  1410   0.288E-03    0.177E-02
RMM:  25    -0.127889919389E+04   -0.10053E-04   -0.90113E-07  1313   0.208E-03    0.651E-03
RMM:  26    -0.127889920551E+04   -0.11616E-04   -0.64444E-07  1295   0.150E-03    0.565E-03
RMM:  27    -0.127889921363E+04   -0.81237E-05   -0.57199E-07  1207   0.145E-03    0.696E-03
RMM:  28    -0.127889922149E+04   -0.78546E-05   -0.50430E-07  1178   0.126E-03    0.294E-03
RMM:  29    -0.127889923254E+04   -0.11050E-04   -0.55324E-07  1192   0.104E-03    0.239E-03
RMM:  30    -0.127889923848E+04   -0.59470E-05   -0.36251E-07  1127   0.929E-04    0.226E-03
RMM:  31    -0.127889924417E+04   -0.56844E-05   -0.34980E-07  1079   0.767E-04    0.359E-03
RMM:  32    -0.127889924998E+04   -0.58078E-05   -0.33522E-07  1115   0.756E-04    0.282E-03
RMM:  33    -0.127889925642E+04   -0.64425E-05   -0.39230E-07  1114   0.711E-04    0.730E-04
RMM:  34    -0.127889926102E+04   -0.46005E-05   -0.31954E-07  1072   0.726E-04    0.145E-03
RMM:  35    -0.127889926316E+04   -0.21424E-05   -0.23673E-07   989   0.619E-04    0.947E-04
RMM:  36    -0.127889926547E+04   -0.23098E-05   -0.21355E-07   981   0.574E-04    0.376E-04
RMM:  37    -0.127889926788E+04   -0.24067E-05   -0.21821E-07   989   0.554E-04    0.499E-04
RMM:  38    -0.127889926937E+04   -0.14926E-05   -0.17986E-07   978   0.544E-04    0.360E-04
RMM:  39    -0.127889927014E+04   -0.76604E-06   -0.14166E-07   880   0.477E-04
  11 F= -.12876977E+04 E0= -.12876813E+04  d E =-.101121E+00  mag=    39.0002
       N       E                     dE             d eps       ncg     rms          rms(c)
DAV:   1    -0.127889917561E+04    0.93757E-04   -0.64277E-02  2364   0.511E-01    0.100E-01
RMM:   2    -0.127889953764E+04   -0.36203E-03   -0.13895E-03  2552   0.821E-02    0.491E-01
RMM:   3    -0.127889912643E+04    0.41121E-03   -0.35662E-04  2572   0.422E-02    0.209E-01
RMM:   4    -0.127889944109E+04   -0.31466E-03   -0.20356E-04  2447   0.328E-02    0.256E-01
RMM:   5    -0.127889927546E+04    0.16563E-03   -0.72495E-05  2138   0.191E-02    0.569E-02
RMM:   6    -0.127889934570E+04   -0.70240E-04   -0.26864E-05  1877   0.108E-02    0.102E-01
RMM:   7    -0.127889933913E+04    0.65763E-05   -0.18272E-05  1836   0.881E-03    0.506E-02
RMM:   8    -0.127889935054E+04   -0.11413E-04   -0.14159E-05  1711   0.848E-03    0.440E-02
RMM:   9    -0.127889935874E+04   -0.81945E-05   -0.98354E-06  1586   0.687E-03    0.463E-02
RMM:  10    -0.127889935544E+04    0.32953E-05   -0.56944E-06  1505   0.568E-03    0.272E-02
RMM:  11    -0.127889935801E+04   -0.25720E-05   -0.17563E-06  1403   0.325E-03    0.125E-02
RMM:  12    -0.127889936007E+04   -0.20583E-05   -0.84077E-07  1295   0.233E-03    0.968E-03
RMM:  13    -0.127889936076E+04   -0.68638E-06   -0.42752E-07  1250   0.165E-03
  12 F= -.12876979E+04 E0= -.12876815E+04  d E =-.101294E+00  mag=    39.0002
       N       E                     dE             d eps       ncg     rms          rms(c)
DAV:   1    -0.127883532416E+04    0.64036E-01   -0.37206E+01  2196   0.119E+01    0.244E+00
RMM:   2    -0.127901706688E+04   -0.18174E+00   -0.79393E-01  2601   0.185E+00    0.690E+00
RMM:   3    -0.127897526051E+04    0.41806E-01   -0.19073E-01  2609   0.910E-01    0.464E+00
RMM:   4    -0.127894643414E+04    0.28826E-01   -0.60127E-02  2603   0.542E-01    0.220E+00
RMM:   5    -0.127894873936E+04   -0.23052E-02   -0.19973E-02  2609   0.258E-01    0.271E+00
RMM:   6    -0.127894695039E+04    0.17890E-02   -0.16975E-02  2511   0.234E-01    0.197E+00
RMM:   7    -0.127894976135E+04   -0.28110E-02   -0.15486E-02  2460   0.250E-01    0.236E+00
RMM:   8    -0.127894570526E+04    0.40561E-02   -0.11542E-02  2410   0.218E-01    0.197E+00
RMM:   9    -0.127894404584E+04    0.16594E-02   -0.88401E-03  2396   0.199E-01    0.106E+00
RMM:  10    -0.127894499791E+04   -0.95207E-03   -0.52272E-03  2386   0.155E-01    0.906E-01
RMM:  11    -0.127894495630E+04    0.41610E-04   -0.26784E-03  2410   0.109E-01    0.851E-01
RMM:  12    -0.127894386290E+04    0.10934E-02   -0.11031E-03  2346   0.716E-02    0.422E-01
RMM:  13    -0.127894412140E+04   -0.25850E-03   -0.48582E-04  2451   0.433E-02    0.279E-01
RMM:  14    -0.127894428907E+04   -0.16767E-03   -0.27149E-04  2346   0.363E-02    0.259E-01
RMM:  15    -0.127894428105E+04    0.80202E-05   -0.13546E-04  2287   0.243E-02    0.171E-01
RMM:  16    -0.127894433804E+04   -0.56995E-04   -0.67780E-05  2181   0.170E-02    0.496E-02
RMM:  17    -0.127894445464E+04   -0.11660E-03   -0.31224E-05  2013   0.125E-02    0.773E-02
RMM:  18    -0.127894448458E+04   -0.29938E-04   -0.23020E-05  1844   0.987E-03    0.661E-02
RMM:  19    -0.127894452371E+04   -0.39130E-04   -0.11289E-05  1663   0.725E-03    0.368E-02
RMM:  20    -0.127894456613E+04   -0.42417E-04   -0.69326E-06  1613   0.560E-03    0.426E-02
RMM:  21    -0.127894457978E+04   -0.13650E-04   -0.43313E-06  1509   0.450E-03    0.258E-02
RMM:  22    -0.127894461458E+04   -0.34796E-04   -0.27509E-06  1488   0.329E-03    0.142E-02
RMM:  23    -0.127894464561E+04   -0.31034E-04   -0.29680E-06  1495   0.340E-03    0.182E-02
RMM:  24    -0.127894466246E+04   -0.16851E-04   -0.18444E-06  1400   0.277E-03    0.899E-03
RMM:  25    -0.127894468306E+04   -0.20604E-04   -0.12867E-06  1334   0.208E-03    0.706E-03
RMM:  26    -0.127894470334E+04   -0.20279E-04   -0.11529E-06  1300   0.176E-03    0.757E-03
RMM:  27    -0.127894471379E+04   -0.10443E-04   -0.80442E-07  1225   0.167E-03    0.586E-03
RMM:  28    -0.127894473097E+04   -0.17181E-04   -0.94734E-07  1224   0.143E-03    0.379E-03
RMM:  29    -0.127894474816E+04   -0.17197E-04   -0.98020E-07  1266   0.136E-03    0.380E-03
RMM:  30    -0.127894476024E+04   -0.12073E-04   -0.78139E-07  1197   0.121E-03    0.198E-03
RMM:  31    -0.127894477226E+04   -0.12026E-04   -0.83312E-07  1203   0.114E-03    0.202E-03
RMM:  32    -0.127894478079E+04   -0.85230E-05   -0.70168E-07  1170   0.109E-03    0.215E-03
RMM:  33    -0.127894478762E+04   -0.68379E-05   -0.65650E-07  1162   0.977E-04    0.925E-04
RMM:  34    -0.127894479238E+04   -0.47548E-05   -0.53560E-07  1118   0.915E-04    0.857E-04
RMM:  35    -0.127894479510E+04   -0.27233E-05   -0.42188E-07  1077   0.798E-04    0.757E-04
RMM:  36    -0.127894479702E+04   -0.19148E-05   -0.32139E-07  1020   0.716E-04    0.542E-04
RMM:  37    -0.127894479833E+04   -0.13114E-05   -0.25327E-07   993   0.639E-04    0.479E-04
RMM:  38    -0.127894479897E+04   -0.64106E-06   -0.18105E-07   935   0.570E-04
  13 F= -.12877435E+04 E0= -.12877274E+04  d E =-.456414E-01  mag=    39.0001
       N       E                     dE             d eps       ncg     rms          rms(c)
DAV:   1    -0.127894421957E+04    0.57876E-03   -0.26130E+00  2220   0.313E+00    0.659E-01
RMM:   2    -0.127895811148E+04   -0.13892E-01   -0.54736E-02  2596   0.494E-01    0.240E+00
RMM:   3    -0.127895159754E+04    0.65139E-02   -0.13402E-02  2608   0.246E-01    0.199E+00
RMM:   4    -0.127895542922E+04   -0.38317E-02   -0.88396E-03  2472   0.208E-01    0.188E+00
RMM:   5    -0.127894941021E+04    0.60190E-02   -0.37333E-03  2407   0.136E-01    0.327E-01
RMM:   6    -0.127895223416E+04   -0.28239E-02   -0.18222E-03  2410   0.918E-02    0.823E-01
RMM:   7    -0.127895153902E+04    0.69513E-03   -0.12791E-03  2532   0.665E-02    0.472E-01
RMM:   8    -0.127895145743E+04    0.81595E-04   -0.10246E-03  2393   0.692E-02    0.312E-01
RMM:   9    -0.127895163419E+04   -0.17676E-03   -0.71508E-04  2364   0.528E-02    0.298E-01
RMM:  10    -0.127895153269E+04    0.10150E-03   -0.29929E-04  2380   0.358E-02    0.165E-01
RMM:  11    -0.127895149473E+04    0.37956E-04   -0.11857E-04  2167   0.227E-02    0.105E-01
RMM:  12    -0.127895152708E+04   -0.32353E-04   -0.37692E-05  1974   0.118E-02    0.846E-02
RMM:  13    -0.127895153388E+04   -0.67930E-05   -0.19885E-05  1687   0.976E-03    0.310E-02
RMM:  14    -0.127895155300E+04   -0.19126E-04   -0.88589E-06  1592   0.652E-03    0.384E-02
RMM:  15    -0.127895155681E+04   -0.38082E-05   -0.44181E-06  1502   0.493E-03    0.246E-02
RMM:  16    -0.127895156119E+04   -0.43811E-05   -0.23701E-06  1445   0.344E-03    0.159E-02
RMM:  17    -0.127895156647E+04   -0.52751E-05   -0.12636E-06  1382   0.252E-03    0.107E-02
RMM:  18    -0.127895157081E+04   -0.43425E-05   -0.89390E-07  1324   0.216E-03    0.784E-03
RMM:  19    -0.127895157585E+04   -0.50455E-05   -0.55729E-07  1266   0.161E-03    0.793E-03
RMM:  20    -0.127895157824E+04   -0.23903E-05   -0.47567E-07  1205   0.152E-03    0.643E-03
RMM:  21    -0.127895158245E+04   -0.42025E-05   -0.35626E-07  1185   0.119E-03    0.403E-03
RMM:  22    -0.127895158613E+04   -0.36824E-05   -0.28437E-07  1177   0.104E-03    0.419E-03
RMM:  23    -0.127895158825E+04   -0.21205E-05   -0.24056E-07  1092   0.921E-04    0.415E-03
RMM:  24    -0.127895159056E+04   -0.23072E-05   -0.18766E-07  1030   0.799E-04    0.198E-03
RMM:  25    -0.127895159270E+04   -0.21478E-05   -0.14666E-07  1021   0.607E-04    0.176E-03
RMM:  26    -0.127895159452E+04   -0.18157E-05   -0.12261E-07   962   0.559E-04    0.146E-03
RMM:  27    -0.127895159613E+04   -0.16087E-05   -0.11514E-07   982   0.529E-04    0.188E-03
RMM:  28    -0.127895159771E+04   -0.15856E-05   -0.10956E-07   970   0.529E-04    0.787E-04
RMM:  29    -0.127895159936E+04   -0.16408E-05   -0.10658E-07   933   0.458E-04    0.918E-04
RMM:  30    -0.127895160051E+04   -0.11514E-05   -0.92301E-08   914   0.438E-04    0.613E-04
RMM:  31    -0.127895160161E+04   -0.11067E-05   -0.93202E-08   906   0.411E-04    0.414E-04
RMM:  32    -0.127895160249E+04   -0.88015E-06   -0.87019E-08   891   0.418E-04
  14 F= -.12877503E+04 E0= -.12877341E+04  d E =-.523928E-01  mag=    39.0001
       N       E                     dE             d eps       ncg     rms          rms(c)
DAV:   1    -0.127896594163E+04   -0.14340E-01   -0.11901E+01  2160   0.668E+00    0.135E+00
RMM:   2    -0.127902445808E+04   -0.58516E-01   -0.23538E-01  2587   0.103E+00    0.486E+00
RMM:   3    -0.127900292047E+04    0.21538E-01   -0.58240E-02  2606   0.511E-01    0.314E+00
RMM:   4    -0.127900311086E+04   -0.19039E-03   -0.26854E-02  2534   0.375E-01    0.158E+00
RMM:   5    -0.127899981945E+04    0.32914E-02   -0.70569E-03  2509   0.171E-01    0.120E+00
RMM:   6    -0.127900194682E+04   -0.21274E-02   -0.45254E-03  2524   0.124E-01    0.142E+00
RMM:   7    -0.127899986399E+04    0.20828E-02   -0.36175E-03  2523   0.119E-01    0.626E-01
RMM:   8    -0.127900104554E+04   -0.11815E-02   -0.36636E-03  2411   0.122E-01    0.819E-01
RMM:   9    -0.127900069522E+04    0.35032E-03   -0.17579E-03  2453   0.834E-02    0.701E-01
RMM:  10    -0.127900005543E+04    0.63980E-03   -0.99062E-04  2391   0.640E-02    0.185E-01
RMM:  11    -0.127900048023E+04   -0.42480E-03   -0.40590E-04  2376   0.421E-02    0.197E-01
RMM:  12    -0.127900052309E+04   -0.42866E-04   -0.17564E-04  2336   0.286E-02    0.174E-01
RMM:  13    -0.127900053307E+04   -0.99825E-05   -0.82541E-05  2149   0.188E-02    0.145E-01
RMM:  14    -0.127900052213E+04    0.10945E-04   -0.39268E-05  1943   0.130E-02    0.401E-02
RMM:  15    -0.127900057678E+04   -0.54651E-04   -0.16784E-05  1759   0.883E-03    0.469E-02
RMM:  16    -0.127900059293E+04   -0.16146E-04   -0.10151E-05  1584   0.703E-03    0.314E-02
RMM:  17    -0.127900061185E+04   -0.18925E-04   -0.61103E-06  1535   0.533E-03    0.304E-02
RMM:  18    -0.127900062406E+04   -0.12211E-04   -0.38545E-06  1495   0.430E-03    0.227E-02
RMM:  19    -0.127900063604E+04   -0.11973E-04   -0.17422E-06  1435   0.296E-03    0.212E-02
RMM:  20    -0.127900064237E+04   -0.63310E-05   -0.13381E-06  1381   0.250E-03    0.179E-02
RMM:  21    -0.127900065122E+04   -0.88501E-05   -0.93164E-07  1322   0.213E-03    0.600E-03
RMM:  22    -0.127900066545E+04   -0.14239E-04   -0.85098E-07  1317   0.180E-03    0.894E-03
RMM:  23    -0.127900067221E+04   -0.67570E-05   -0.68467E-07  1268   0.179E-03    0.962E-03
RMM:  24    -0.127900067718E+04   -0.49716E-05   -0.43509E-07  1226   0.133E-03    0.606E-03
RMM:  25    -0.127900068226E+04   -0.50792E-05   -0.27664E-07  1128   0.921E-04    0.396E-03
RMM:  26    -0.127900068692E+04   -0.46524E-05   -0.23225E-07  1071   0.775E-04    0.401E-03
RMM:  27    -0.127900068995E+04   -0.30366E-05   -0.19708E-07  1025   0.796E-04    0.333E-03
RMM:  28    -0.127900069503E+04   -0.50755E-05   -0.21470E-07  1068   0.683E-04    0.135E-03
RMM:  29    -0.127900069893E+04   -0.39051E-05   -0.18339E-07  1058   0.669E-04    0.148E-03
RMM:  30    -0.127900070242E+04   -0.34861E-05   -0.18590E-07  1037   0.589E-04    0.154E-03
RMM:  31    -0.127900070553E+04   -0.31092E-05   -0.16763E-07  1030   0.567E-04    0.101E-03
RMM:  32    -0.127900070850E+04   -0.29687E-05   -0.18539E-07  1032   0.535E-04    0.431E-04
RMM:  33    -0.127900071056E+04   -0.20673E-05   -0.16116E-07   994   0.544E-04    0.523E-04
RMM:  34    -0.127900071158E+04   -0.10157E-05   -0.12191E-07   901   0.470E-04    0.345E-04
RMM:  35    -0.127900071256E+04   -0.97671E-06   -0.10171E-07   879   0.444E-04
  15 F= -.12877993E+04 E0= -.12877831E+04  d E =-.489788E-01  mag=    39.0001
       N       E                     dE             d eps       ncg     rms          rms(c)
DAV:   1    -0.127899587158E+04    0.48400E-02   -0.45895E+00  2172   0.415E+00    0.838E-01
RMM:   2    -0.127901915535E+04   -0.23284E-01   -0.90593E-02  2588   0.641E-01    0.341E+00
RMM:   3    -0.127900698523E+04    0.12170E-01   -0.22470E-02  2608   0.321E-01    0.207E+00
RMM:   4    -0.127901188529E+04   -0.49001E-02   -0.12755E-02  2503   0.259E-01    0.132E+00
RMM:   5    -0.127900818507E+04    0.37002E-02   -0.36395E-03  2463   0.128E-01    0.587E-01
RMM:   6    -0.127900959688E+04   -0.14118E-02   -0.17619E-03  2503   0.803E-02    0.888E-01
RMM:   7    -0.127900874910E+04    0.84778E-03   -0.14386E-03  2512   0.723E-02    0.412E-01
RMM:   8    -0.127900916552E+04   -0.41641E-03   -0.12548E-03  2432   0.749E-02    0.440E-01
RMM:   9    -0.127900922542E+04   -0.59903E-04   -0.88955E-04  2397   0.602E-02    0.465E-01
RMM:  10    -0.127900894158E+04    0.28384E-03   -0.39801E-04  2386   0.410E-02    0.229E-01
RMM:  11    -0.127900901220E+04   -0.70616E-04   -0.20466E-04  2254   0.290E-02    0.729E-02
RMM:  12    -0.127900910669E+04   -0.94496E-04   -0.52809E-05  2125   0.162E-02    0.903E-02
RMM:  13    -0.127900911801E+04   -0.11319E-04   -0.30648E-05  1905   0.120E-02    0.774E-02
RMM:  14    -0.127900912333E+04   -0.53182E-05   -0.14603E-05  1631   0.811E-03    0.420E-02
RMM:  15    -0.127900913714E+04   -0.13807E-04   -0.86547E-06  1549   0.640E-03    0.271E-02
RMM:  16    -0.127900915072E+04   -0.13580E-04   -0.35233E-06  1490   0.425E-03    0.235E-02
RMM:  17    -0.127900915683E+04   -0.61149E-05   -0.27614E-06  1443   0.361E-03    0.171E-02
RMM:  18    -0.127900916502E+04   -0.81923E-05   -0.11910E-06  1358   0.255E-03    0.140E-02
RMM:  19    -0.127900916978E+04   -0.47562E-05   -0.59099E-07  1284   0.172E-03    0.127E-02
RMM:  20    -0.127900917309E+04   -0.33060E-05   -0.51388E-07  1252   0.154E-03    0.112E-02
RMM:  21    -0.127900917696E+04   -0.38704E-05   -0.40742E-07  1187   0.141E-03    0.465E-03
RMM:  22    -0.127900918455E+04   -0.75977E-05   -0.38088E-07  1250   0.109E-03    0.541E-03
RMM:  23    -0.127900918702E+04   -0.24618E-05   -0.27596E-07  1162   0.116E-03    0.582E-03
RMM:  24    -0.127900918930E+04   -0.22818E-05   -0.18046E-07  1101   0.812E-04    0.370E-03
RMM:  25    -0.127900919167E+04   -0.23696E-05   -0.12476E-07  1003   0.665E-04    0.222E-03
RMM:  26    -0.127900919403E+04   -0.23628E-05   -0.10265E-07   900   0.514E-04    0.138E-03
RMM:  27    -0.127900919685E+04   -0.28216E-05   -0.10790E-07   979   0.507E-04    0.118E-03
RMM:  28    -0.127900919860E+04   -0.17513E-05   -0.95144E-08   960   0.500E-04    0.112E-03
RMM:  29    -0.127900919987E+04   -0.12705E-05   -0.77192E-08   891   0.460E-04    0.104E-03
RMM:  30    -0.127900920117E+04   -0.12965E-05   -0.68052E-08   854   0.424E-04    0.969E-04
RMM:  31    -0.127900920258E+04   -0.14059E-05   -0.72478E-08   908   0.403E-04    0.786E-04
RMM:  32    -0.127900920386E+04   -0.12876E-05   -0.71419E-08   910   0.401E-04    0.332E-04
RMM:  33    -0.127900920489E+04   -0.10282E-05   -0.68224E-08   860   0.390E-04    0.324E-04
RMM:  34    -0.127900920540E+04   -0.50855E-06   -0.50536E-08   774   0.371E-04
  16 F= -.12878077E+04 E0= -.12877916E+04  d E =-.573927E-01  mag=    39.0000
       N       E                     dE             d eps       ncg     rms          rms(c)
DAV:   1    -0.127902565256E+04   -0.16448E-01   -0.47489E+00  2160   0.434E+00    0.792E-01
RMM:   2    -0.127904365260E+04   -0.18000E-01   -0.88708E-02  2544   0.642E-01    0.274E+00
RMM:   3    -0.127904097217E+04    0.26804E-02   -0.20286E-02  2569   0.301E-01    0.230E+00
RMM:   4    -0.127903836455E+04    0.26076E-02   -0.99412E-03  2521   0.233E-01    0.991E-01
RMM:   5    -0.127903786781E+04    0.49675E-03   -0.23143E-03  2502   0.100E-01    0.589E-01
RMM:   6    -0.127903889953E+04   -0.10317E-02   -0.12482E-03  2515   0.668E-02    0.684E-01
RMM:   7    -0.127903845406E+04    0.44547E-03   -0.82615E-04  2546   0.572E-02    0.322E-01
RMM:   8    -0.127903891506E+04   -0.46100E-03   -0.89628E-04  2448   0.620E-02    0.379E-01
RMM:   9    -0.127903883807E+04    0.76994E-04   -0.53678E-04  2504   0.472E-02    0.308E-01
RMM:  10    -0.127903877775E+04    0.60311E-04   -0.31162E-04  2406   0.348E-02    0.174E-01
RMM:  11    -0.127903883359E+04   -0.55832E-04   -0.16214E-04  2322   0.255E-02    0.996E-02
RMM:  12    -0.127903886578E+04   -0.32194E-04   -0.61433E-05  2062   0.168E-02    0.812E-02
RMM:  13    -0.127903887798E+04   -0.12200E-04   -0.31112E-05  1866   0.114E-02    0.767E-02
RMM:  14    -0.127903887934E+04   -0.13585E-05   -0.16967E-05  1618   0.863E-03    0.343E-02
RMM:  15    -0.127903889393E+04   -0.14594E-04   -0.86359E-06  1556   0.633E-03    0.279E-02
RMM:  16    -0.127903890197E+04   -0.80413E-05   -0.35118E-06  1483   0.447E-03    0.158E-02
RMM:  17    -0.127903890758E+04   -0.56026E-05   -0.21687E-06  1442   0.326E-03    0.191E-02
RMM:  18    -0.127903891119E+04   -0.36153E-05   -0.11924E-06  1375   0.254E-03    0.141E-02
RMM:  19    -0.127903891463E+04   -0.34415E-05   -0.68443E-07  1299   0.191E-03    0.132E-02
RMM:  20    -0.127903891761E+04   -0.29800E-05   -0.58606E-07  1264   0.168E-03    0.105E-02
RMM:  21    -0.127903892245E+04   -0.48358E-05   -0.42556E-07  1258   0.148E-03    0.381E-03
RMM:  22    -0.127903892791E+04   -0.54560E-05   -0.26577E-07  1250   0.106E-03    0.629E-03
RMM:  23    -0.127903892997E+04   -0.20652E-05   -0.18854E-07  1182   0.946E-04    0.627E-03
RMM:  24    -0.127903893102E+04   -0.10533E-05   -0.11886E-07  1050   0.714E-04    0.470E-03
RMM:  25    -0.127903893307E+04   -0.20500E-05   -0.82943E-08   945   0.546E-04    0.227E-03
RMM:  26    -0.127903893553E+04   -0.24577E-05   -0.82640E-08   946   0.499E-04    0.165E-03
RMM:  27    -0.127903893741E+04   -0.18783E-05   -0.79391E-08   954   0.510E-04    0.174E-03
RMM:  28    -0.127903893857E+04   -0.11633E-05   -0.65248E-08   868   0.468E-04    0.138E-03
RMM:  29    -0.127903894001E+04   -0.14378E-05   -0.62786E-08   875   0.430E-04    0.669E-04
RMM:  30    -0.127903894141E+04   -0.13987E-05   -0.61603E-08   832   0.393E-04    0.931E-04
RMM:  31    -0.127903894251E+04   -0.11037E-05   -0.61568E-08   836   0.388E-04    0.563E-04
RMM:  32    -0.127903894347E+04   -0.95778E-06   -0.61453E-08   829   0.381E-04
  17 F= -.12878372E+04 E0= -.12878211E+04  d E =-.294990E-01  mag=    39.0000
       N       E                     dE             d eps       ncg     rms          rms(c)
DAV:   1    -0.127901685328E+04    0.22089E-01   -0.15201E+01  2160   0.778E+00    0.142E+00
RMM:   2    -0.127907590892E+04   -0.59056E-01   -0.28743E-01  2546   0.115E+00    0.469E+00
RMM:   3    -0.127906848529E+04    0.74236E-02   -0.66542E-02  2584   0.539E-01    0.346E+00
RMM:   4    -0.127905761635E+04    0.10869E-01   -0.25361E-02  2547   0.368E-01    0.132E+00
RMM:   5    -0.127905945073E+04   -0.18344E-02   -0.56190E-03  2579   0.145E-01    0.145E+00
RMM:   6    -0.127905835406E+04    0.10967E-02   -0.35026E-03  2568   0.109E-01    0.706E-01
RMM:   7    -0.127906040994E+04   -0.20559E-02   -0.28030E-03  2497   0.108E-01    0.994E-01
RMM:   8    -0.127905977380E+04    0.63614E-03   -0.26328E-03  2493   0.103E-01    0.727E-01
RMM:   9    -0.127905982922E+04   -0.55419E-04   -0.18136E-03  2500   0.886E-02    0.631E-01
RMM:  10    -0.127905940918E+04    0.42004E-03   -0.10797E-03  2448   0.671E-02    0.281E-01
RMM:  11    -0.127905964162E+04   -0.23244E-03   -0.50865E-04  2453   0.452E-02    0.219E-01
RMM:  12    -0.127905969842E+04   -0.56798E-04   -0.26734E-04  2347   0.352E-02    0.183E-01
RMM:  13    -0.127905970179E+04   -0.33736E-05   -0.13367E-04  2252   0.228E-02    0.140E-01
RMM:  14    -0.127905971603E+04   -0.14240E-04   -0.63376E-05  2057   0.168E-02    0.612E-02
RMM:  15    -0.127905975444E+04   -0.38402E-04   -0.30295E-05  1883   0.117E-02    0.545E-02
RMM:  16    -0.127905977098E+04   -0.16547E-04   -0.14554E-05  1617   0.802E-03    0.444E-02
RMM:  17    -0.127905978118E+04   -0.10198E-04   -0.83562E-06  1543   0.634E-03    0.257E-02
RMM:  18    -0.127905979603E+04   -0.14848E-04   -0.41368E-06  1494   0.452E-03    0.233E-02
RMM:  19    -0.127905980777E+04   -0.11741E-04   -0.26449E-06  1451   0.370E-03    0.239E-02
RMM:  20    -0.127905981484E+04   -0.70692E-05   -0.19698E-06  1418   0.303E-03    0.163E-02
RMM:  21    -0.127905982961E+04   -0.14766E-04   -0.13285E-06  1359   0.253E-03    0.624E-03
RMM:  22    -0.127905984344E+04   -0.13835E-04   -0.84480E-07  1305   0.205E-03    0.119E-02
RMM:  23    -0.127905984911E+04   -0.56694E-05   -0.64539E-07  1299   0.175E-03    0.121E-02
RMM:  24    -0.127905985374E+04   -0.46274E-05   -0.36905E-07  1244   0.129E-03    0.800E-03
RMM:  25    -0.127905985971E+04   -0.59708E-05   -0.25146E-07  1188   0.879E-04    0.419E-03
RMM:  26    -0.127905986511E+04   -0.54024E-05   -0.23066E-07  1106   0.873E-04    0.387E-03
RMM:  27    -0.127905986971E+04   -0.46031E-05   -0.21537E-07  1105   0.829E-04    0.323E-03
RMM:  28    -0.127905987485E+04   -0.51417E-05   -0.19680E-07  1063   0.736E-04    0.181E-03
RMM:  29    -0.127905988029E+04   -0.54330E-05   -0.20901E-07  1085   0.638E-04    0.149E-03
RMM:  30    -0.127905988480E+04   -0.45133E-05   -0.20736E-07  1076   0.621E-04    0.154E-03
RMM:  31    -0.127905988809E+04   -0.32875E-05   -0.18644E-07  1028   0.562E-04    0.846E-04
RMM:  32    -0.127905989135E+04   -0.32637E-05   -0.20459E-07  1016   0.549E-04    0.552E-04
RMM:  33    -0.127905989341E+04   -0.20545E-05   -0.17969E-07   977   0.536E-04    0.448E-04
RMM:  34    -0.127905989469E+04   -0.12855E-05   -0.14145E-07   900   0.486E-04    0.452E-04
RMM:  35    -0.127905989599E+04   -0.12978E-05   -0.13985E-07   935   0.471E-04    0.372E-04
RMM:  36    -0.127905989677E+04   -0.78176E-06   -0.11587E-07   924   0.456E-04
  18 F= -.12878577E+04 E0= -.12878418E+04  d E =-.500540E-01  mag=    39.0000
       N       E                     dE             d eps       ncg     rms          rms(c)
DAV:   1    -0.127907030460E+04   -0.10409E-01   -0.35748E+00  2172   0.389E+00    0.632E-01
RMM:   2    -0.127908535246E+04   -0.15048E-01   -0.69210E-02  2492   0.564E-01    0.278E+00
RMM:   3    -0.127907693124E+04    0.84212E-02   -0.14252E-02  2506   0.271E-01    0.152E+00
RMM:   4    -0.127908007911E+04   -0.31479E-02   -0.63976E-03  2543   0.190E-01    0.859E-01
RMM:   5    -0.127907902132E+04    0.10578E-02   -0.13682E-03  2481   0.762E-02    0.488E-01
RMM:   6    -0.127907995342E+04   -0.93210E-03   -0.89923E-04  2489   0.559E-02    0.630E-01
RMM:   7    -0.127907948255E+04    0.47087E-03   -0.65448E-04  2540   0.517E-02    0.253E-01
RMM:   8    -0.127907988838E+04   -0.40582E-03   -0.67346E-04  2391   0.532E-02    0.360E-01
RMM:   9    -0.127907983455E+04    0.53828E-04   -0.39558E-04  2466   0.388E-02    0.325E-01
RMM:  10    -0.127907969457E+04    0.13998E-03   -0.22293E-04  2348   0.304E-02    0.101E-01
RMM:  11    -0.127907979552E+04   -0.10095E-03   -0.65177E-05  2125   0.172E-02    0.898E-02
RMM:  12    -0.127907982301E+04   -0.27497E-04   -0.39178E-05  1944   0.136E-02    0.773E-02
RMM:  13    -0.127907982467E+04   -0.16550E-05   -0.18621E-05  1683   0.905E-03    0.496E-02
RMM:  14    -0.127907983389E+04   -0.92217E-05   -0.94064E-06  1555   0.672E-03    0.229E-02
RMM:  15    -0.127907984474E+04   -0.10855E-04   -0.42319E-06  1506   0.473E-03    0.255E-02
RMM:  16    -0.127907984766E+04   -0.29139E-05   -0.24615E-06  1442   0.355E-03    0.178E-02
RMM:  17    -0.127907985185E+04   -0.41962E-05   -0.12475E-06  1381   0.260E-03    0.105E-02
RMM:  18    -0.127907985489E+04   -0.30315E-05   -0.74284E-07  1313   0.198E-03    0.128E-02
RMM:  19    -0.127907985729E+04   -0.24043E-05   -0.46936E-07  1259   0.161E-03    0.110E-02
RMM:  20    -0.127907985906E+04   -0.17705E-05   -0.37444E-07  1219   0.138E-03    0.791E-03
RMM:  21    -0.127907986285E+04   -0.37944E-05   -0.29663E-07  1216   0.118E-03    0.378E-03
RMM:  22    -0.127907986597E+04   -0.31142E-05   -0.23250E-07  1217   0.105E-03    0.629E-03
RMM:  23    -0.127907986687E+04   -0.90259E-06   -0.15201E-07  1120   0.856E-04
  19 F= -.12878780E+04 E0= -.12878621E+04  d E =-.202962E-01  mag=    39.0000
       N       E                     dE             d eps       ncg     rms          rms(c)
DAV:   1    -0.127906412900E+04    0.15737E-01   -0.10675E+01  2160   0.672E+00    0.109E+00
RMM:   2    -0.127910864036E+04   -0.44511E-01   -0.20756E-01  2488   0.975E-01    0.455E+00
RMM:   3    -0.127908775230E+04    0.20888E-01   -0.42402E-02  2506   0.465E-01    0.245E+00
RMM:   4    -0.127909247450E+04   -0.47222E-02   -0.16743E-02  2577   0.306E-01    0.114E+00
RMM:   5    -0.127909205135E+04    0.42316E-03   -0.34934E-03  2501   0.117E-01    0.105E+00
RMM:   6    -0.127909240041E+04   -0.34906E-03   -0.24898E-03  2516   0.929E-02    0.721E-01
RMM:   7    -0.127909300303E+04   -0.60262E-03   -0.18628E-03  2526   0.862E-02    0.739E-01
RMM:   8    -0.127909273104E+04    0.27199E-03   -0.17932E-03  2422   0.866E-02    0.601E-01
RMM:   9    -0.127909293895E+04   -0.20792E-03   -0.11998E-03  2481   0.703E-02    0.584E-01
RMM:  10    -0.127909247019E+04    0.46876E-03   -0.66739E-04  2433   0.536E-02    0.234E-01
RMM:  11    -0.127909266973E+04   -0.19953E-03   -0.25196E-04  2412   0.324E-02    0.140E-01
RMM:  12    -0.127909276873E+04   -0.99000E-04   -0.14428E-04  2242   0.263E-02    0.123E-01
RMM:  13    -0.127909278171E+04   -0.12985E-04   -0.66784E-05  2057   0.162E-02    0.103E-01
RMM:  14    -0.127909279213E+04   -0.10422E-04   -0.31225E-05  1891   0.119E-02    0.344E-02
RMM:  15    -0.127909282016E+04   -0.28024E-04   -0.12140E-05  1639   0.764E-03    0.430E-02
RMM:  16    -0.127909282733E+04   -0.71762E-05   -0.75749E-06  1539   0.597E-03    0.310E-02
RMM:  17    -0.127909283884E+04   -0.11504E-04   -0.36326E-06  1478   0.437E-03    0.179E-02
RMM:  18    -0.127909284743E+04   -0.85951E-05   -0.23470E-06  1451   0.339E-03    0.225E-02
RMM:  19    -0.127909285470E+04   -0.72712E-05   -0.16783E-06  1415   0.291E-03    0.188E-02
RMM:  20    -0.127909286118E+04   -0.64718E-05   -0.12016E-06  1374   0.246E-03    0.117E-02
[...]
       N       E                     dE             d eps       ncg     rms          rms(c)
DAV:   1    -0.127968352102E+04    0.75160E-04   -0.51164E-02  2172   0.435E-01    0.635E-02
RMM:   2    -0.127968362705E+04   -0.10603E-03   -0.12205E-03  2372   0.602E-02    0.676E-02
RMM:   3    -0.127968373278E+04   -0.10573E-03   -0.18219E-04  2320   0.307E-02    0.238E-01
RMM:   4    -0.127968359528E+04    0.13751E-03   -0.80137E-05  2426   0.182E-02    0.496E-02
RMM:   5    -0.127968363990E+04   -0.44618E-04   -0.17263E-05  1770   0.976E-03    0.783E-02
RMM:   6    -0.127968363634E+04    0.35544E-05   -0.95903E-06  1595   0.676E-03    0.490E-02
RMM:   7    -0.127968364023E+04   -0.38904E-05   -0.66613E-06  1530   0.639E-03    0.243E-02
RMM:   8    -0.127968364705E+04   -0.68135E-05   -0.72805E-06  1597   0.568E-03    0.268E-02
RMM:   9    -0.127968364609E+04    0.96062E-06   -0.52686E-06  1522   0.546E-03
 506 F= -.12885714E+04 E0= -.12885597E+04  d E =-.100370E-03  mag=    39.0000
       N       E                     dE             d eps       ncg     rms          rms(c)
DAV:   1    -0.127968362508E+04    0.21968E-04   -0.43553E-02  2232   0.399E-01    0.546E-02
RMM:   2    -0.127968375570E+04   -0.13062E-03   -0.96787E-04  2421   0.544E-02    0.184E-01
RMM:   3    -0.127968369311E+04    0.62587E-04   -0.13127E-04  2376   0.264E-02    0.125E-01
RMM:   4    -0.127968377321E+04   -0.80098E-04   -0.79080E-05  2326   0.178E-02    0.220E-01
RMM:   5    -0.127968368401E+04    0.89194E-04   -0.43155E-05  1926   0.143E-02    0.394E-02
RMM:   6    -0.127968371563E+04   -0.31618E-04   -0.13059E-05  1640   0.820E-03    0.271E-02
RMM:   7    -0.127968372314E+04   -0.75053E-05   -0.47837E-06  1559   0.494E-03    0.227E-02
RMM:   8    -0.127968372469E+04   -0.15534E-05   -0.49883E-06  1533   0.510E-03    0.205E-02
RMM:   9    -0.127968372672E+04   -0.20274E-05   -0.38042E-06  1480   0.435E-03    0.233E-02
RMM:  10    -0.127968372544E+04    0.12766E-05   -0.17710E-06  1378   0.326E-03    0.152E-02
RMM:  11    -0.127968372569E+04   -0.25167E-06   -0.52417E-07  1242   0.173E-03
 507 F= -.12885715E+04 E0= -.12885597E+04  d E =-.684513E-04  mag=    39.0000
       N       E                     dE             d eps       ncg     rms          rms(c)
DAV:   1    -0.127968360116E+04    0.12428E-03   -0.77873E-02  2184   0.532E-01    0.683E-02
RMM:   2    -0.127968374364E+04   -0.14247E-03   -0.16792E-03  2371   0.696E-02    0.432E-02
RMM:   3    -0.127968380108E+04   -0.57443E-04   -0.17550E-04  2330   0.324E-02    0.136E-01
RMM:   4    -0.127968376749E+04    0.33595E-04   -0.69952E-05  2454   0.159E-02    0.117E-01
RMM:   5    -0.127968375688E+04    0.10604E-04   -0.24191E-05  1889   0.116E-02    0.446E-02
RMM:   6    -0.127968377538E+04   -0.18503E-04   -0.13037E-05  1655   0.735E-03    0.640E-02
RMM:   7    -0.127968376711E+04    0.82739E-05   -0.74427E-06  1521   0.581E-03    0.309E-02
RMM:   8    -0.127968377358E+04   -0.64733E-05   -0.91787E-06  1606   0.633E-03    0.270E-02
RMM:   9    -0.127968377785E+04   -0.42690E-05   -0.78381E-06  1630   0.587E-03    0.358E-02
RMM:  10    -0.127968377359E+04    0.42636E-05   -0.44344E-06  1470   0.494E-03    0.196E-02
RMM:  11    -0.127968377409E+04   -0.50186E-06   -0.90938E-07  1267   0.227E-03
 508 F= -.12885715E+04 E0= -.12885598E+04  d E =-.101928E-03  mag=    39.0000
       N       E                     dE             d eps       ncg     rms          rms(c)
DAV:   1    -0.127968375951E+04    0.14075E-04   -0.33652E-02  2184   0.340E-01    0.465E-02
RMM:   2    -0.127968382423E+04   -0.64712E-04   -0.71935E-04  2418   0.455E-02    0.757E-02
RMM:   3    -0.127968387016E+04   -0.45931E-04   -0.81925E-05  2303   0.216E-02    0.211E-01
RMM:   4    -0.127968378822E+04    0.81939E-04   -0.53980E-05  2269   0.162E-02    0.676E-02
RMM:   5    -0.127968381806E+04   -0.29846E-04   -0.19451E-05  1757   0.104E-02    0.479E-02
RMM:   6    -0.127968383186E+04   -0.13798E-04   -0.10918E-05  1633   0.681E-03    0.491E-02
RMM:   7    -0.127968383029E+04    0.15673E-05   -0.75342E-06  1553   0.614E-03    0.233E-02
RMM:   8    -0.127968383154E+04   -0.12412E-05   -0.56612E-06  1484   0.518E-03    0.165E-02
RMM:   9    -0.127968383292E+04   -0.13795E-05   -0.18671E-06  1379   0.329E-03    0.145E-02
RMM:  10    -0.127968383299E+04   -0.74237E-07   -0.10490E-06  1297   0.257E-03
 509 F= -.12885716E+04 E0= -.12885598E+04  d E =-.600902E-04  mag=    39.0000
       N       E                     dE             d eps       ncg     rms          rms(c)
DAV:   1    -0.127968382374E+04    0.91717E-05   -0.57514E-03  2316   0.141E-01    0.196E-02
RMM:   2    -0.127968383670E+04   -0.12958E-04   -0.12563E-04  2509   0.192E-02    0.492E-02
RMM:   3    -0.127968383393E+04    0.27681E-05   -0.13804E-05  1814   0.871E-03    0.606E-02
RMM:   4    -0.127968383458E+04   -0.64699E-06   -0.91935E-06  1641   0.671E-03    0.551E-02
RMM:   5    -0.127968383174E+04    0.28363E-05   -0.46021E-06  1438   0.514E-03    0.184E-02
RMM:   6    -0.127968383581E+04   -0.40680E-05   -0.21380E-06  1408   0.347E-03    0.131E-02
RMM:   7    -0.127968383649E+04   -0.67949E-06   -0.12648E-06  1315   0.272E-03
 510 F= -.12885716E+04 E0= -.12885598E+04  d E =-.640908E-04  mag=    39.0000
       N       E                     dE             d eps       ncg     rms          rms(c)
DAV:   1    -0.127968384224E+04   -0.64243E-05   -0.11852E-02  2172   0.209E-01    0.320E-02
RMM:   2    -0.127968386993E+04   -0.27696E-04   -0.29457E-04  2505   0.298E-02    0.602E-02
RMM:   3    -0.127968388816E+04   -0.18223E-04   -0.42495E-05  2182   0.142E-02    0.148E-01
RMM:   4    -0.127968384740E+04    0.40759E-04   -0.27163E-05  1949   0.114E-02    0.561E-02
RMM:   5    -0.127968386488E+04   -0.17483E-04   -0.10251E-05  1593   0.797E-03    0.297E-02
RMM:   6    -0.127968386977E+04   -0.48912E-05   -0.30510E-06  1424   0.412E-03    0.216E-02
RMM:   7    -0.127968387122E+04   -0.14507E-05   -0.24703E-06  1388   0.362E-03    0.162E-02
RMM:   8    -0.127968387177E+04   -0.54448E-06   -0.23213E-06  1381   0.368E-03
 511 F= -.12885716E+04 E0= -.12885599E+04  d E =-.388349E-04  mag=    39.0000
       N       E                     dE             d eps       ncg     rms          rms(c)
DAV:   1    -0.127968374846E+04    0.12276E-03   -0.54681E-02  2160   0.449E-01    0.706E-02
RMM:   2    -0.127968389706E+04   -0.14860E-03   -0.13634E-03  2400   0.652E-02    0.154E-01
RMM:   3    -0.127968395302E+04   -0.55957E-04   -0.21125E-04  2362   0.323E-02    0.303E-01
RMM:   4    -0.127968383336E+04    0.11966E-03   -0.13718E-04  2442   0.246E-02    0.126E-01
RMM:   5    -0.127968386861E+04   -0.35247E-04   -0.50797E-05  2042   0.173E-02    0.474E-02
RMM:   6    -0.127968388142E+04   -0.12809E-04   -0.13260E-05  1721   0.747E-03    0.627E-02
RMM:   7    -0.127968387915E+04    0.22691E-05   -0.12365E-05  1630   0.687E-03    0.384E-02
RMM:   8    -0.127968388303E+04   -0.38874E-05   -0.11140E-05  1673   0.725E-03    0.358E-02
RMM:   9    -0.127968388532E+04   -0.22881E-05   -0.10522E-05  1600   0.696E-03    0.345E-02
RMM:  10    -0.127968388297E+04    0.23526E-05   -0.42190E-06  1477   0.506E-03    0.839E-03
RMM:  11    -0.127968388470E+04   -0.17272E-05   -0.88802E-07  1269   0.229E-03    0.864E-03
RMM:  12    -0.127968388495E+04   -0.25261E-06   -0.43401E-07  1244   0.170E-03
 512 F= -.12885716E+04 E0= -.12885599E+04  d E =-.596381E-04  mag=    39.0000
       N       E                     dE             d eps       ncg     rms          rms(c)
DAV:   1    -0.127968386251E+04    0.22192E-04   -0.23692E-02  2196   0.289E-01    0.401E-02
RMM:   2    -0.127968390557E+04   -0.43061E-04   -0.52077E-04  2394   0.391E-02    0.411E-02
RMM:   3    -0.127968397812E+04   -0.72555E-04   -0.72500E-05  2270   0.195E-02    0.241E-01
RMM:   4    -0.127968384854E+04    0.12958E-03   -0.44912E-05  2172   0.150E-02    0.533E-02
RMM:   5    -0.127968390005E+04   -0.51511E-04   -0.13695E-05  1694   0.911E-03    0.305E-02
RMM:   6    -0.127968391560E+04   -0.15544E-04   -0.48725E-06  1525   0.526E-03    0.275E-02
RMM:   7    -0.127968391623E+04   -0.63447E-06   -0.23409E-06  1404   0.413E-03
 513 F= -.12885717E+04 E0= -.12885600E+04  d E =-.445951E-04  mag=    39.0000
       N       E                     dE             d eps       ncg     rms          rms(c)
DAV:   1    -0.127968342805E+04    0.48755E-03   -0.21299E-01  2160   0.867E-01    0.120E-01
RMM:   2    -0.127968389277E+04   -0.46473E-03   -0.46935E-03  2379   0.119E-01    0.224E-01
RMM:   3    -0.127968420847E+04   -0.31569E-03   -0.64185E-04  2344   0.582E-02    0.584E-01
RMM:   4    -0.127968374206E+04    0.46640E-03   -0.42381E-04  2587   0.442E-02    0.228E-01
RMM:   5    -0.127968386531E+04   -0.12325E-03   -0.16082E-04  2204   0.292E-02    0.123E-01
RMM:   6    -0.127968389949E+04   -0.34179E-04   -0.49053E-05  2115   0.148E-02    0.683E-02
RMM:   7    -0.127968391139E+04   -0.11896E-04   -0.21636E-05  1924   0.100E-02    0.516E-02
RMM:   8    -0.127968391817E+04   -0.67827E-05   -0.22208E-05  1934   0.985E-03    0.478E-02
RMM:   9    -0.127968393296E+04   -0.14787E-04   -0.26597E-05  1952   0.102E-02    0.690E-02
RMM:  10    -0.127968391929E+04    0.13669E-04   -0.12794E-05  1629   0.793E-03    0.266E-02
RMM:  11    -0.127968392257E+04   -0.32817E-05   -0.20790E-06  1417   0.343E-03    0.134E-02
RMM:  12    -0.127968392458E+04   -0.20082E-05   -0.86586E-07  1282   0.228E-03    0.730E-03
RMM:  13    -0.127968392586E+04   -0.12815E-05   -0.35788E-07  1244   0.153E-03    0.537E-03
RMM:  14    -0.127968392637E+04   -0.51299E-06   -0.20014E-07  1229   0.113E-03
 514 F= -.12885717E+04 E0= -.12885600E+04  d E =-.946254E-04  mag=    39.0000
       N       E                     dE             d eps       ncg     rms          rms(c)
DAV:   1    -0.127968388338E+04    0.42477E-04   -0.44130E-02  2208   0.375E-01    0.517E-02
RMM:   2    -0.127968395945E+04   -0.76074E-04   -0.88751E-04  2351   0.485E-02    0.750E-02
RMM:   3    -0.127968402370E+04   -0.64244E-04   -0.94550E-05  2270   0.237E-02    0.235E-01
RMM:   4    -0.127968391463E+04    0.10907E-03   -0.57359E-05  2313   0.167E-02    0.565E-02
RMM:   5    -0.127968396078E+04   -0.46154E-04   -0.23555E-05  1839   0.115E-02    0.539E-02
RMM:   6    -0.127968398313E+04   -0.22342E-04   -0.18034E-05  1756   0.825E-03    0.920E-02
RMM:   7    -0.127968396291E+04    0.20215E-04   -0.11801E-05  1610   0.784E-03    0.308E-02
RMM:   8    -0.127968397147E+04   -0.85570E-05   -0.52489E-06  1519   0.504E-03    0.231E-02
RMM:   9    -0.127968397267E+04   -0.11991E-05   -0.25628E-06  1436   0.394E-03    0.168E-02
RMM:  10    -0.127968397274E+04   -0.72883E-07   -0.11122E-06  1322   0.259E-03
 515 F= -.12885718E+04 E0= -.12885601E+04  d E =-.670966E-04  mag=    39.0000
       N       E                     dE             d eps       ncg     rms          rms(c)
DAV:   1    -0.127968396579E+04    0.68788E-05   -0.16842E-03  2388   0.739E-02    0.120E-02
RMM:   2    -0.127968397505E+04   -0.92633E-05   -0.37800E-05  2276   0.111E-02    0.655E-02
RMM:   3    -0.127968396065E+04    0.14404E-04   -0.61691E-06  1534   0.605E-03    0.236E-02
RMM:   4    -0.127968396963E+04   -0.89785E-05   -0.34773E-06  1475   0.448E-03    0.205E-02
RMM:   5    -0.127968397028E+04   -0.65059E-06   -0.15219E-06  1308   0.289E-03
 516 F= -.12885718E+04 E0= -.12885601E+04  d E =-.686917E-04  mag=    39.0000
       N       E                     dE             d eps       ncg     rms          rms(c)
DAV:   1    -0.127968394986E+04    0.19767E-04   -0.35278E-02  2160   0.358E-01    0.538E-02
RMM:   2    -0.127968404298E+04   -0.93120E-04   -0.84158E-04  2375   0.499E-02    0.157E-01
RMM:   3    -0.127968402301E+04    0.19967E-04   -0.11357E-04  2323   0.246E-02    0.163E-01
RMM:   4    -0.127968403358E+04   -0.10570E-04   -0.64574E-05  2334   0.171E-02    0.131E-01
RMM:   5    -0.127968400911E+04    0.24471E-04   -0.22387E-05  1776   0.104E-02    0.347E-02
RMM:   6    -0.127968403096E+04   -0.21849E-04   -0.92170E-06  1589   0.664E-03    0.386E-02
RMM:   7    -0.127968403212E+04   -0.11601E-05   -0.54431E-06  1534   0.559E-03    0.237E-02
RMM:   8    -0.127968403706E+04   -0.49345E-05   -0.80441E-06  1607   0.598E-03    0.284E-02
RMM:   9    -0.127968403615E+04    0.90733E-06   -0.42135E-06  1478   0.498E-03
 517 F= -.12885719E+04 E0= -.12885601E+04  d E =-.794162E-04  mag=    39.0000
       N       E                     dE             d eps       ncg     rms          rms(c)
DAV:   1    -0.127968394709E+04    0.89964E-04   -0.35941E-02  2160   0.362E-01    0.553E-02
RMM:   2    -0.127968404509E+04   -0.97999E-04   -0.86915E-04  2435   0.514E-02    0.134E-01
RMM:   3    -0.127968403602E+04    0.90752E-05   -0.12839E-04  2380   0.247E-02    0.137E-01
RMM:   4    -0.127968405279E+04   -0.16779E-04   -0.59614E-05  2322   0.158E-02    0.174E-01
RMM:   5    -0.127968400442E+04    0.48378E-04   -0.28084E-05  1834   0.122E-02    0.449E-02
RMM:   6    -0.127968403005E+04   -0.25633E-04   -0.12697E-05  1610   0.821E-03    0.297E-02
RMM:   7    -0.127968403332E+04   -0.32750E-05   -0.44056E-06  1513   0.485E-03    0.236E-02
RMM:   8    -0.127968403610E+04   -0.27715E-05   -0.76594E-06  1586   0.606E-03    0.269E-02
RMM:   9    -0.127968403694E+04   -0.84325E-06   -0.52521E-06  1524   0.516E-03
 518 F= -.12885719E+04 E0= -.12885601E+04  d E =-.938980E-04  mag=    39.0000
       N       E                     dE             d eps       ncg     rms          rms(c)
DAV:   1    -0.127968398324E+04    0.52860E-04   -0.39704E-02  2160   0.368E-01    0.575E-02
RMM:   2    -0.127968413257E+04   -0.14933E-03   -0.91236E-04  2459   0.527E-02    0.254E-01
RMM:   3    -0.127968401520E+04    0.11737E-03   -0.13259E-04  2414   0.258E-02    0.103E-01
RMM:   4    -0.127968409535E+04   -0.80155E-04   -0.66416E-05  2295   0.180E-02    0.123E-01
RMM:   5    -0.127968405976E+04    0.35592E-04   -0.22080E-05  1761   0.104E-02    0.470E-02
RMM:   6    -0.127968407102E+04   -0.11258E-04   -0.94975E-06  1584   0.668E-03    0.353E-02
RMM:   7    -0.127968407401E+04   -0.29875E-05   -0.43436E-06  1502   0.488E-03    0.255E-02
RMM:   8    -0.127968407653E+04   -0.25200E-05   -0.51705E-06  1528   0.520E-03    0.276E-02
RMM:   9    -0.127968407622E+04    0.30609E-06   -0.32771E-06  1455   0.431E-03
 519 F= -.12885719E+04 E0= -.12885602E+04  d E =-.503551E-04  mag=    39.0000
       N       E                     dE             d eps       ncg     rms          rms(c)
DAV:   1    -0.127968398448E+04    0.92048E-04   -0.39225E-02  2172   0.366E-01    0.555E-02
RMM:   2    -0.127968407380E+04   -0.89325E-04   -0.88120E-04  2443   0.509E-02    0.116E-01
RMM:   3    -0.127968411123E+04   -0.37424E-04   -0.12622E-04  2387   0.242E-02    0.216E-01
RMM:   4    -0.127968408276E+04    0.28469E-04   -0.75829E-05  2314   0.183E-02    0.174E-01
RMM:   5    -0.127968404126E+04    0.41495E-04   -0.39362E-05  1938   0.145E-02    0.371E-02
RMM:   6    -0.127968406988E+04   -0.28615E-04   -0.11439E-05  1630   0.774E-03    0.289E-02
RMM:   7    -0.127968407328E+04   -0.34050E-05   -0.37833E-06  1497   0.466E-03    0.180E-02
RMM:   8    -0.127968407650E+04   -0.32159E-05   -0.53947E-06  1518   0.517E-03    0.215E-02
RMM:   9    -0.127968407745E+04   -0.95576E-06   -0.38411E-06  1491   0.457E-03
 520 F= -.12885719E+04 E0= -.12885602E+04  d E =-.626214E-04  mag=    39.0000
       N       E                     dE             d eps       ncg     rms          rms(c)
DAV:   1    -0.127968407721E+04   -0.71558E-06   -0.25598E-02  2196   0.297E-01    0.431E-02
RMM:   2    -0.127968413311E+04   -0.55898E-04   -0.56412E-04  2509   0.411E-02    0.819E-02
RMM:   3    -0.127968415602E+04   -0.22905E-04   -0.75324E-05  2360   0.194E-02    0.163E-01
RMM:   4    -0.127968412612E+04    0.29901E-04   -0.46435E-05  2199   0.145E-02    0.125E-01
RMM:   5    -0.127968412183E+04    0.42866E-05   -0.23143E-05  1759   0.109E-02    0.392E-02
RMM:   6    -0.127968413373E+04   -0.11897E-04   -0.80658E-06  1548   0.650E-03    0.227E-02
RMM:   7    -0.127968413546E+04   -0.17362E-05   -0.33178E-06  1455   0.426E-03    0.168E-02
RMM:   8    -0.127968413608E+04   -0.61369E-06   -0.31077E-06  1449   0.422E-03
 521 F= -.12885720E+04 E0= -.12885603E+04  d E =-.675293E-04  mag=    39.0000
       N       E                     dE             d eps       ncg     rms          rms(c)
DAV:   1    -0.127968402839E+04    0.10707E-03   -0.54745E-02  2160   0.433E-01    0.648E-02
RMM:   2    -0.127968419060E+04   -0.16220E-03   -0.12355E-03  2437   0.630E-02    0.200E-01
RMM:   3    -0.127968415302E+04    0.37582E-04   -0.17207E-04  2424   0.303E-02    0.221E-01
RMM:   4    -0.127968413099E+04    0.22024E-04   -0.11553E-04  2380   0.230E-02    0.115E-01
RMM:   5    -0.127968413933E+04   -0.83332E-05   -0.37590E-05  2026   0.148E-02    0.372E-02
RMM:   6    -0.127968414935E+04   -0.10021E-04   -0.11140E-05  1660   0.677E-03    0.588E-02
RMM:   7    -0.127968414605E+04    0.32949E-05   -0.92980E-06  1594   0.630E-03    0.342E-02
RMM:   8    -0.127968414911E+04   -0.30612E-05   -0.75174E-06  1575   0.617E-03    0.260E-02
RMM:   9    -0.127968415081E+04   -0.16991E-05   -0.60433E-06  1524   0.537E-03    0.224E-02
RMM:  10    -0.127968415049E+04    0.32380E-06   -0.21850E-06  1421   0.378E-03
 522 F= -.12885720E+04 E0= -.12885603E+04  d E =-.949569E-04  mag=    39.0000
       N       E                     dE             d eps       ncg     rms          rms(c)
DAV:   1    -0.127968415305E+04   -0.22342E-05   -0.16490E-02  2244   0.243E-01    0.387E-02
RMM:   2    -0.127968419010E+04   -0.37053E-04   -0.41168E-04  2461   0.341E-02    0.515E-02
RMM:   3    -0.127968420818E+04   -0.18079E-04   -0.63127E-05  2252   0.176E-02    0.101E-01
RMM:   4    -0.127968419186E+04    0.16317E-04   -0.25941E-05  1924   0.102E-02    0.847E-02
RMM:   5    -0.127968418560E+04    0.62600E-05   -0.10353E-05  1608   0.805E-03    0.399E-02
RMM:   6    -0.127968419238E+04   -0.67780E-05   -0.44066E-06  1479   0.474E-03    0.286E-02
RMM:   7    -0.127968419376E+04   -0.13824E-05   -0.22304E-06  1388   0.359E-03    0.157E-02
RMM:   8    -0.127968419692E+04   -0.31565E-05   -0.47015E-06  1493   0.478E-03    0.267E-02
RMM:   9    -0.127968419649E+04    0.42923E-06   -0.34256E-06  1471   0.419E-03
 523 F= -.12885721E+04 E0= -.12885604E+04  d E =-.487432E-04  mag=    39.0000
       N       E                     dE             d eps       ncg     rms          rms(c)
DAV:   1    -0.127968417292E+04    0.24001E-04   -0.11455E-02  2220   0.203E-01    0.327E-02
RMM:   2    -0.127968419746E+04   -0.24543E-04   -0.28721E-04  2513   0.284E-02    0.387E-02
RMM:   3    -0.127968421632E+04   -0.18862E-04   -0.43906E-05  2149   0.142E-02    0.102E-01
RMM:   4    -0.127968419682E+04    0.19500E-04   -0.19200E-05  1761   0.866E-03    0.680E-02
RMM:   5    -0.127968419576E+04    0.10625E-05   -0.75367E-06  1549   0.677E-03    0.334E-02
RMM:   6    -0.127968420015E+04   -0.43929E-05   -0.33370E-06  1443   0.430E-03    0.224E-02
RMM:   7    -0.127968420101E+04   -0.85949E-06   -0.13277E-06  1319   0.302E-03
 524 F= -.12885721E+04 E0= -.12885604E+04  d E =-.555657E-04  mag=    39.0000
       N       E                     dE             d eps       ncg     rms          rms(c)
DAV:   1    -0.127968420574E+04   -0.55829E-05   -0.24885E-02  2172   0.288E-01    0.449E-02
RMM:   2    -0.127968429468E+04   -0.88942E-04   -0.57113E-04  2405   0.430E-02    0.161E-01
RMM:   3    -0.127968424942E+04    0.45254E-04   -0.82459E-05  2297   0.212E-02    0.155E-01
RMM:   4    -0.127968423722E+04    0.12206E-04   -0.52537E-05  2232   0.155E-02    0.553E-02
RMM:   5    -0.127968425528E+04   -0.18062E-04   -0.15019E-05  1737   0.948E-03    0.441E-02
RMM:   6    -0.127968425518E+04    0.10362E-06   -0.62868E-06  1503   0.543E-03
 525 F= -.12885721E+04 E0= -.12885604E+04  d E =-.540016E-04  mag=    39.0000
       N       E                     dE             d eps       ncg     rms          rms(c)
