 162 162   0   0
  0.2463063E+02  0.2599329E-08  0.2599232E-08  0.6819665E-09  0.5000000E-15
  1.000000000000000E-004
  CAR 
 Co–organic framework                  
      7.79609625    -26.03111255  301     -1.20359236      1.00000000
    -26.031  0.0000E+00  0.0000E+00  0.0000E+00  0.0000E+00
    -25.918  0.0000E+00  0.0000E+00  0.0000E+00  0.0000E+00
    -25.806  0.0000E+00  0.0000E+00  0.0000E+00  0.0000E+00
    -25.693  0.0000E+00  0.0000E+00  0.0000E+00  0.0000E+00
    -25.580  0.0000E+00  0.0000E+00  0.0000E+00  0.0000E+00
    -25.467  0.0000E+00  0.0000E+00  0.0000E+00  0.0000E+00
    -25.355  0.0000E+00  0.0000E+00  0.0000E+00  0.0000E+00
    -25.242  0.0000E+00  0.0000E+00  0.0000E+00  0.0000E+00
    -25.129  0.0000E+00  0.0000E+00  0.0000E+00  0.0000E+00
    -25.016  0.0000E+00  0.0000E+00  0.0000E+00  0.0000E+00
    -24.904  0.0000E+00  0.0000E+00  0.0000E+00  0.0000E+00
    -24.791  0.0000E+00  0.0000E+00  0.0000E+00  0.0000E+00
    -24.678  0.2813E-08  0.0000E+00  0.3171E-09  0.0000E+00
    -24.565  0.8736E-03  0.8076E-09  0.9851E-04  0.9106E-10
    -24.453  0.4455E-01  0.4898E-03  0.5122E-02  0.5523E-04
    -24.340  0.5511E-01  0.4187E-01  0.1134E-01  0.4776E-02
    -24.227  0.5897E-01  0.5541E-01  0.1799E-01  0.1102E-01
    -24.114  0.1264E-03  0.6171E-01  0.1800E-01  0.1798E-01
    -24.001  0.2696E-10  0.1574E-03  0.1800E-01  0.1800E-01
    -23.889  0.0000E+00  0.4129E-10  0.1800E-01  0.1800E-01
    -23.776  0.0000E+00  0.0000E+00  0.1800E-01  0.1800E-01
    -23.663  0.0000E+00  0.0000E+00  0.1800E-01  0.1800E-01
    -23.550  0.0000E+00  0.0000E+00  0.1800E-01  0.1800E-01
    -23.438  0.0000E+00  0.0000E+00  0.1800E-01  0.1800E-01
    -23.325  0.0000E+00  0.0000E+00  0.1800E-01  0.1800E-01
    -23.212  0.0000E+00  0.0000E+00  0.1800E-01  0.1800E-01
    -23.099  0.0000E+00  0.0000E+00  0.1800E-01  0.1800E-01
    -22.987  0.0000E+00  0.0000E+00  0.1800E-01  0.1800E-01
    -22.874  0.1068E-10  0.0000E+00  0.1800E-01  0.1800E-01
    -22.761  0.5321E-04  0.0000E+00  0.1801E-01  0.1800E-01
    -22.648  0.4001E-01  0.2683E-11  0.2252E-01  0.1800E-01
    -22.536  0.1149E+00  0.2493E-04  0.3547E-01  0.1800E-01
    -22.423  0.4718E-02  0.3058E-01  0.3600E-01  0.2145E-01
    -22.310  0.1095E-06  0.1197E+00  0.3600E-01  0.3495E-01
    -22.197  0.3231E-09  0.9310E-02  0.3600E-01  0.3600E-01
    -22.085  0.4887E-03  0.6751E-06  0.3606E-01  0.3600E-01
    -21.972  0.1037E+00  0.2770E-04  0.4775E-01  0.3600E-01
    -21.859  0.5540E-01  0.5143E-01  0.5400E-01  0.4180E-01
    -21.746  0.3295E-04  0.1075E+00  0.5400E-01  0.5393E-01
    -21.634  0.1859E-11  0.6308E-03  0.5400E-01  0.5400E-01
    -21.521  0.0000E+00  0.5497E-09  0.5400E-01  0.5400E-01
    -21.408  0.0000E+00  0.0000E+00  0.5400E-01  0.5400E-01
    -21.295  0.0000E+00  0.0000E+00  0.5400E-01  0.5400E-01
    -21.183  0.0000E+00  0.0000E+00  0.5400E-01  0.5400E-01
    -21.070  0.0000E+00  0.0000E+00  0.5400E-01  0.5400E-01
    -20.957  0.0000E+00  0.0000E+00  0.5400E-01  0.5400E-01
    -20.844  0.0000E+00  0.0000E+00  0.5400E-01  0.5400E-01
    -20.732  0.0000E+00  0.0000E+00  0.5400E-01  0.5400E-01
    -20.619  0.0000E+00  0.0000E+00  0.5400E-01  0.5400E-01
    -20.506  0.0000E+00  0.0000E+00  0.5400E-01  0.5400E-01
    -20.393  0.0000E+00  0.0000E+00  0.5400E-01  0.5400E-01
    -20.280  0.0000E+00  0.0000E+00  0.5400E-01  0.5400E-01
    -20.168  0.0000E+00  0.0000E+00  0.5400E-01  0.5400E-01
    -20.055  0.0000E+00  0.0000E+00  0.5400E-01  0.5400E-01
    -19.942  0.0000E+00  0.0000E+00  0.5400E-01  0.5400E-01
    -19.829  0.0000E+00  0.0000E+00  0.5400E-01  0.5400E-01
    -19.717  0.0000E+00  0.0000E+00  0.5400E-01  0.5400E-01
    -19.604  0.0000E+00  0.0000E+00  0.5400E-01  0.5400E-01
    -19.491  0.0000E+00  0.0000E+00  0.5400E-01  0.5400E-01
    -19.378  0.0000E+00  0.0000E+00  0.5400E-01  0.5400E-01
    -19.266  0.0000E+00  0.0000E+00  0.5400E-01  0.5400E-01
    -19.153  0.0000E+00  0.0000E+00  0.5400E-01  0.5400E-01
    -19.040  0.0000E+00  0.0000E+00  0.5400E-01  0.5400E-01
    -18.927  0.0000E+00  0.0000E+00  0.5400E-01  0.5400E-01
    -18.815  0.0000E+00  0.0000E+00  0.5400E-01  0.5400E-01
    -18.702  0.0000E+00  0.0000E+00  0.5400E-01  0.5400E-01
    -18.589  0.0000E+00  0.0000E+00  0.5400E-01  0.5400E-01
    -18.476  0.7177E-14  0.0000E+00  0.5400E-01  0.5400E-01
    -18.364  0.5333E-06  0.4060E-10  0.5400E-01  0.5400E-01
    -18.251  0.5223E-02  0.6260E-04  0.5459E-01  0.5401E-01
    -18.138  0.6692E-01  0.2852E-01  0.6213E-01  0.5722E-01
    -18.025  0.7672E-02  0.5077E-01  0.6300E-01  0.6295E-01
    -17.913  0.6625E-06  0.4665E-03  0.6300E-01  0.6300E-01
    -17.800  0.4500E-14  0.9229E-09  0.6300E-01  0.6300E-01
    -17.687  0.0000E+00  0.0000E+00  0.6300E-01  0.6300E-01
    -17.574  0.0000E+00  0.0000E+00  0.6300E-01  0.6300E-01
    -17.462  0.0000E+00  0.0000E+00  0.6300E-01  0.6300E-01
    -17.349  0.0000E+00  0.0000E+00  0.6300E-01  0.6300E-01
    -17.236  0.0000E+00  0.0000E+00  0.6300E-01  0.6300E-01
    -17.123  0.0000E+00  0.0000E+00  0.6300E-01  0.6300E-01
    -17.011  0.0000E+00  0.0000E+00  0.6300E-01  0.6300E-01
    -16.898  0.0000E+00  0.0000E+00  0.6300E-01  0.6300E-01
    -16.785  0.0000E+00  0.0000E+00  0.6300E-01  0.6300E-01
    -16.672  0.0000E+00  0.0000E+00  0.6300E-01  0.6300E-01
    -16.559  0.1227E-09  0.3988E-13  0.6300E-01  0.6300E-01
    -16.447  0.1113E-03  0.1457E-05  0.6301E-01  0.6300E-01
    -16.334  0.3487E-01  0.8239E-02  0.6694E-01  0.6393E-01
    -16.221  0.4463E-01  0.6757E-01  0.7198E-01  0.7155E-01
    -16.108  0.2048E-03  0.4009E-02  0.7200E-01  0.7200E-01
    -15.996  0.1582E-09  0.1076E-06  0.7200E-01  0.7200E-01
    -15.883  0.0000E+00  0.2058E-15  0.7200E-01  0.7200E-01
    -15.770  0.0000E+00  0.0000E+00  0.7200E-01  0.7200E-01
    -15.657  0.0000E+00  0.0000E+00  0.7200E-01  0.7200E-01
    -15.545  0.0000E+00  0.0000E+00  0.7200E-01  0.7200E-01
    -15.432  0.0000E+00  0.0000E+00  0.7200E-01  0.7200E-01
    -15.319  0.0000E+00  0.0000E+00  0.7200E-01  0.7200E-01
    -15.206  0.7424E-09  0.1772E-16  0.7200E-01  0.7200E-01
    -15.094  0.1845E-03  0.1357E-07  0.7202E-01  0.7200E-01
    -14.981  0.1715E-01  0.6452E-03  0.7395E-01  0.7207E-01
    -14.868  0.5019E-01  0.2641E-01  0.7961E-01  0.7505E-01
    -14.755  0.1228E-01  0.4800E-01  0.8100E-01  0.8046E-01
    -14.643  0.5715E-05  0.4762E-02  0.8100E-01  0.8100E-01
    -14.530  0.2066E-12  0.3065E-06  0.8100E-01  0.8100E-01
    -14.417  0.0000E+00  0.1266E-14  0.8100E-01  0.8100E-01
    -14.304  0.0000E+00  0.0000E+00  0.8100E-01  0.8100E-01
    -14.192  0.0000E+00  0.0000E+00  0.8100E-01  0.8100E-01
    -14.079  0.1171E-14  0.0000E+00  0.8100E-01  0.8100E-01
    -13.966  0.2001E-06  0.3525E-11  0.8100E-01  0.8100E-01
    -13.853  0.4633E-02  0.2233E-04  0.8152E-01  0.8100E-01
    -13.741  0.7001E-01  0.2778E-01  0.8942E-01  0.8414E-01
    -13.628  0.5173E-02  0.5177E-01  0.9000E-01  0.8997E-01
    -13.515  0.1220E-06  0.2404E-03  0.9000E-01  0.9000E-01
    -13.402  0.1861E-15  0.1328E-09  0.9000E-01  0.9000E-01
    -13.290  0.0000E+00  0.0000E+00  0.9000E-01  0.9000E-01
    -13.177  0.0000E+00  0.0000E+00  0.9000E-01  0.9000E-01
    -13.064  0.0000E+00  0.0000E+00  0.9000E-01  0.9000E-01
    -12.951  0.0000E+00  0.0000E+00  0.9000E-01  0.9000E-01
    -12.839  0.0000E+00  0.0000E+00  0.9000E-01  0.9000E-01
    -12.726  0.0000E+00  0.0000E+00  0.9000E-01  0.9000E-01
    -12.613  0.0000E+00  0.0000E+00  0.9000E-01  0.9000E-01
    -12.500  0.0000E+00  0.0000E+00  0.9000E-01  0.9000E-01
    -12.387  0.5450E-15  0.0000E+00  0.9000E-01  0.9000E-01
    -12.275  0.1106E-06  0.3736E-14  0.9000E-01  0.9000E-01
    -12.162  0.2213E-02  0.4254E-06  0.9025E-01  0.9000E-01
    -12.049  0.4020E-01  0.5204E-02  0.9478E-01  0.9059E-01
    -11.936  0.3593E-01  0.5364E-01  0.9883E-01  0.9664E-01
    -11.824  0.2488E-01  0.2096E-01  0.1016E+00  0.9900E-01
    -11.711  0.3775E-01  0.1786E-01  0.1059E+00  0.1010E+00
    -11.598  0.2154E-01  0.3373E-01  0.1083E+00  0.1048E+00
    -11.485  0.5969E-02  0.3083E-01  0.1090E+00  0.1083E+00
    -11.373  0.2993E-04  0.6245E-02  0.1090E+00  0.1090E+00
    -11.260  0.1002E-01  0.2600E-04  0.1101E+00  0.1090E+00
    -11.147  0.2531E-01  0.1013E-02  0.1130E+00  0.1091E+00
    -11.034  0.9720E-02  0.3094E-01  0.1141E+00  0.1126E+00
    -10.922  0.1427E-01  0.3967E-02  0.1157E+00  0.1131E+00
    -10.809  0.1158E-01  0.1552E-01  0.1170E+00  0.1148E+00
    -10.696  0.9902E-04  0.1578E-01  0.1170E+00  0.1166E+00
    -10.583  0.1181E-01  0.3731E-02  0.1183E+00  0.1170E+00
    -10.471  0.1843E-01  0.2092E-02  0.1204E+00  0.1172E+00
    -10.358  0.2328E-01  0.1531E-01  0.1230E+00  0.1190E+00
    -10.245  0.2458E-01  0.2205E-01  0.1258E+00  0.1214E+00
    -10.132  0.2529E-01  0.2022E-01  0.1287E+00  0.1237E+00
    -10.020  0.1210E-01  0.2946E-01  0.1300E+00  0.1271E+00
     -9.907  0.3906E-01  0.1610E-01  0.1344E+00  0.1289E+00
     -9.794  0.5030E-02  0.2714E-01  0.1350E+00  0.1319E+00
     -9.681  0.2528E-02  0.2714E-01  0.1353E+00  0.1350E+00
     -9.569  0.5423E-01  0.2874E-03  0.1414E+00  0.1350E+00
     -9.456  0.2182E-01  0.3847E-01  0.1439E+00  0.1394E+00
     -9.343  0.1960E-01  0.3415E-01  0.1461E+00  0.1432E+00
     -9.230  0.4463E-01  0.1661E-01  0.1511E+00  0.1451E+00
     -9.118  0.2364E-01  0.2988E-01  0.1538E+00  0.1484E+00
     -9.005  0.5341E-01  0.3892E-01  0.1598E+00  0.1528E+00
     -8.892  0.1996E-01  0.1913E-01  0.1620E+00  0.1550E+00
     -8.779  0.5390E-01  0.5591E-01  0.1681E+00  0.1613E+00
     -8.666  0.2536E-01  0.3031E-01  0.1710E+00  0.1647E+00
     -8.554  0.4324E-02  0.5445E-01  0.1715E+00  0.1709E+00
     -8.441  0.2966E-01  0.1122E-01  0.1748E+00  0.1721E+00
     -8.328  0.5200E-01  0.3589E-01  0.1807E+00  0.1762E+00
     -8.215  0.2140E-01  0.4328E-01  0.1831E+00  0.1810E+00
     -8.103  0.1722E-01  0.2305E-01  0.1850E+00  0.1836E+00
     -7.990  0.3396E-01  0.2929E-01  0.1889E+00  0.1869E+00
     -7.877  0.1299E-02  0.1805E-01  0.1890E+00  0.1890E+00
     -7.764  0.1537E-01  0.1271E-03  0.1907E+00  0.1890E+00
     -7.652  0.5932E-01  0.4320E-05  0.1974E+00  0.1890E+00
     -7.539  0.5110E-02  0.1526E-01  0.1980E+00  0.1907E+00
     -7.426  0.6141E-02  0.6306E-01  0.1987E+00  0.1978E+00
     -7.313  0.7627E-01  0.1507E-02  0.2073E+00  0.1980E+00
     -7.201  0.8623E-01  0.3133E-01  0.2170E+00  0.2015E+00
     -7.088  0.5454E-01  0.1187E+00  0.2232E+00  0.2149E+00
     -6.975  0.1363E-01  0.1086E-01  0.2247E+00  0.2161E+00
     -6.862  0.2633E-02  0.3403E-01  0.2250E+00  0.2200E+00
     -6.750  0.9922E-06  0.3595E-01  0.2250E+00  0.2240E+00
     -6.637  0.3115E-02  0.8476E-02  0.2254E+00  0.2250E+00
     -6.524  0.5303E-01  0.1047E-03  0.2313E+00  0.2250E+00
     -6.411  0.2313E-01  0.3043E-02  0.2339E+00  0.2253E+00
     -6.299  0.4514E-02  0.6929E-01  0.2344E+00  0.2332E+00
     -6.186  0.6182E-01  0.7487E-02  0.2414E+00  0.2340E+00
     -6.073  0.3098E-01  0.4311E-06  0.2449E+00  0.2340E+00
     -5.960  0.2602E-01  0.8608E-07  0.2478E+00  0.2340E+00
     -5.848  0.3211E-01  0.2564E-02  0.2515E+00  0.2343E+00
     -5.735  0.5777E-02  0.5968E-01  0.2521E+00  0.2410E+00
     -5.622  0.2440E-01  0.1855E-01  0.2549E+00  0.2431E+00
     -5.509  0.3623E-01  0.3356E-01  0.2590E+00  0.2469E+00
     -5.397  0.8998E-01  0.4317E-01  0.2691E+00  0.2518E+00
     -5.284  0.5606E-01  0.2434E-02  0.2754E+00  0.2520E+00
     -5.171  0.2289E-01  0.2822E-01  0.2780E+00  0.2552E+00
     -5.058  0.6951E-02  0.4121E-01  0.2788E+00  0.2599E+00
     -4.945  0.1058E-01  0.3527E-01  0.2800E+00  0.2638E+00
     -4.833  0.7775E-01  0.1579E-01  0.2887E+00  0.2656E+00
     -4.720  0.6746E-01  0.8121E-01  0.2964E+00  0.2748E+00
     -4.607  0.5419E-01  0.3221E-01  0.3025E+00  0.2784E+00
     -4.494  0.5662E-01  0.6349E-02  0.3088E+00  0.2791E+00
     -4.382  0.1357E-02  0.7031E-01  0.3090E+00  0.2871E+00
     -4.269  0.2604E-06  0.8342E-01  0.3090E+00  0.2965E+00
     -4.156  0.2009E-02  0.1961E-01  0.3092E+00  0.2987E+00
     -4.043  0.3950E-01  0.5547E-01  0.3137E+00  0.3049E+00
     -3.931  0.4771E-01  0.3380E-01  0.3191E+00  0.3087E+00
     -3.818  0.4098E-01  0.2615E-02  0.3237E+00  0.3090E+00
     -3.705  0.6592E-01  0.1450E-01  0.3311E+00  0.3107E+00
     -3.592  0.6018E-01  0.6660E-01  0.3379E+00  0.3182E+00
     -3.480  0.3606E-01  0.3889E-01  0.3420E+00  0.3226E+00
     -3.367  0.1121E-01  0.1251E-01  0.3432E+00  0.3240E+00
     -3.254  0.5312E-01  0.2312E-03  0.3492E+00  0.3240E+00
     -3.141  0.9989E-01  0.1272E-08  0.3605E+00  0.3240E+00
     -3.029  0.1104E+00  0.0000E+00  0.3729E+00  0.3240E+00
     -2.916  0.4580E-01  0.0000E+00  0.3781E+00  0.3240E+00
     -2.803  0.6552E-01  0.4923E-17  0.3855E+00  0.3240E+00
     -2.690  0.8522E-01  0.9148E-08  0.3951E+00  0.3240E+00
     -2.578  0.8070E-02  0.1066E-02  0.3960E+00  0.3241E+00
     -2.465  0.3269E-05  0.4289E-01  0.3960E+00  0.3290E+00
     -2.352  0.9573E-02  0.3269E-01  0.3971E+00  0.3326E+00
     -2.239  0.5640E-01  0.3170E-02  0.4034E+00  0.3330E+00
     -2.127  0.1894E-01  0.1508E-05  0.4056E+00  0.3330E+00
     -2.014  0.1233E-01  0.1380E-12  0.4070E+00  0.3330E+00
     -1.901  0.5514E-01  0.2737E-05  0.4132E+00  0.3330E+00
     -1.788  0.7408E-02  0.9786E-02  0.4140E+00  0.3341E+00
     -1.676  0.1283E-01  0.7500E-01  0.4155E+00  0.3426E+00
     -1.563  0.5332E-01  0.2750E-01  0.4215E+00  0.3457E+00
     -1.450  0.1349E-01  0.7889E-01  0.4230E+00  0.3546E+00
     -1.337  0.7287E-05  0.1180E+00  0.4230E+00  0.3679E+00
     -1.224  0.3225E-12  0.1011E-01  0.4230E+00  0.3690E+00
     -1.112  0.0000E+00  0.4600E-03  0.4230E+00  0.3691E+00
     -0.999  0.0000E+00  0.9137E-02  0.4230E+00  0.3701E+00
     -0.886  0.0000E+00  0.3567E-01  0.4230E+00  0.3741E+00
     -0.773  0.0000E+00  0.5190E-01  0.4230E+00  0.3800E+00
     -0.661  0.0000E+00  0.6114E-01  0.4230E+00  0.3868E+00
     -0.548  0.0000E+00  0.1336E-02  0.4230E+00  0.3870E+00
     -0.435  0.0000E+00  0.9624E-08  0.4230E+00  0.3870E+00
     -0.322  0.0000E+00  0.1029E-05  0.4230E+00  0.3870E+00
     -0.210  0.0000E+00  0.6973E-02  0.4230E+00  0.3878E+00
     -0.097  0.0000E+00  0.8008E-01  0.4230E+00  0.3968E+00
      0.016  0.6721E-11  0.7184E-01  0.4230E+00  0.4049E+00
      0.129  0.4068E-04  0.7450E-03  0.4230E+00  0.4050E+00
      0.241  0.3088E-01  0.3980E-04  0.4265E+00  0.4050E+00
      0.354  0.4855E-01  0.2013E-01  0.4320E+00  0.4073E+00
      0.467  0.3416E-03  0.6473E-01  0.4320E+00  0.4146E+00
      0.580  0.8425E-09  0.9811E-01  0.4320E+00  0.4256E+00
      0.692  0.0000E+00  0.5619E-01  0.4320E+00  0.4320E+00
      0.805  0.0000E+00  0.2494E-03  0.4320E+00  0.4320E+00
      0.918  0.0000E+00  0.1611E-09  0.4320E+00  0.4320E+00
      1.031  0.0000E+00  0.0000E+00  0.4320E+00  0.4320E+00
      1.143  0.0000E+00  0.0000E+00  0.4320E+00  0.4320E+00
      1.256  0.0000E+00  0.0000E+00  0.4320E+00  0.4320E+00
      1.369  0.0000E+00  0.0000E+00  0.4320E+00  0.4320E+00
      1.482  0.0000E+00  0.0000E+00  0.4320E+00  0.4320E+00
      1.594  0.0000E+00  0.0000E+00  0.4320E+00  0.4320E+00
      1.707  0.7877E-17  0.0000E+00  0.4320E+00  0.4320E+00
      1.820  0.1175E-07  0.1093E-15  0.4320E+00  0.4320E+00
      1.933  0.1332E-02  0.6143E-07  0.4322E+00  0.4320E+00
      2.045  0.6071E-01  0.2754E-02  0.4390E+00  0.4323E+00
      2.158  0.8966E-01  0.6502E-01  0.4491E+00  0.4396E+00
      2.271  0.2647E-01  0.7450E-01  0.4521E+00  0.4480E+00
      2.384  0.2563E-01  0.2617E-01  0.4550E+00  0.4510E+00
      2.497  0.4742E-03  0.1355E-01  0.4550E+00  0.4525E+00
      2.609  0.7836E-02  0.2191E-01  0.4559E+00  0.4550E+00
      2.722  0.1179E-01  0.8032E-04  0.4572E+00  0.4550E+00
      2.835  0.6679E-02  0.9324E-02  0.4580E+00  0.4561E+00
      2.948  0.2268E-02  0.1699E-01  0.4583E+00  0.4580E+00
      3.060  0.4017E-01  0.3510E-03  0.4628E+00  0.4580E+00
      3.173  0.2830E-01  0.2075E-01  0.4660E+00  0.4603E+00
      3.286  0.2215E-03  0.2473E-01  0.4660E+00  0.4631E+00
      3.399  0.5840E-02  0.2524E-01  0.4667E+00  0.4660E+00
      3.511  0.1184E-01  0.1563E-03  0.4680E+00  0.4660E+00
      3.624  0.5803E-04  0.9767E-04  0.4680E+00  0.4660E+00
      3.737  0.7263E-02  0.1303E-01  0.4688E+00  0.4675E+00
      3.850  0.3248E-01  0.1092E-01  0.4725E+00  0.4687E+00
      3.962  0.2890E-01  0.3319E-01  0.4757E+00  0.4725E+00
      4.075  0.2429E-01  0.4163E-01  0.4785E+00  0.4771E+00
      4.188  0.1451E-01  0.2484E-01  0.4801E+00  0.4799E+00
      4.301  0.4032E-01  0.4446E-03  0.4847E+00  0.4800E+00
      4.413  0.2937E-01  0.1833E-02  0.4880E+00  0.4802E+00
      4.526  0.9306E-02  0.5264E-01  0.4890E+00  0.4861E+00
      4.639  0.5717E-01  0.1894E-01  0.4955E+00  0.4883E+00
      4.752  0.3033E-01  0.4314E-01  0.4989E+00  0.4931E+00
      4.864  0.3989E-01  0.4516E-01  0.5034E+00  0.4982E+00
      4.977  0.5579E-02  0.4035E-01  0.5040E+00  0.5028E+00
      5.090  0.2468E-01  0.1077E-01  0.5068E+00  0.5040E+00
      5.203  0.5158E-01  0.4030E-02  0.5126E+00  0.5045E+00
      5.315  0.2598E-01  0.6326E-01  0.5155E+00  0.5116E+00
      5.428  0.5070E-02  0.2213E-01  0.5161E+00  0.5141E+00
      5.541  0.1635E-01  0.1635E-01  0.5180E+00  0.5159E+00
      5.654  0.2955E-01  0.9435E-02  0.5213E+00  0.5170E+00
      5.766  0.1555E-01  0.2247E-01  0.5230E+00  0.5195E+00
      5.879  0.1065E-01  0.3115E-01  0.5242E+00  0.5230E+00
      5.992  0.4922E-01  0.1187E-01  0.5298E+00  0.5244E+00
      6.105  0.7669E-01  0.5210E-01  0.5384E+00  0.5302E+00
      6.217  0.1381E-01  0.5232E-01  0.5400E+00  0.5361E+00
      6.330  0.2251E-05  0.3358E-01  0.5400E+00  0.5399E+00
      6.443  0.3107E-13  0.6011E-03  0.5400E+00  0.5400E+00
      6.556  0.0000E+00  0.2027E-08  0.5400E+00  0.5400E+00
      6.669  0.0000E+00  0.0000E+00  0.5400E+00  0.5400E+00
      6.781  0.0000E+00  0.0000E+00  0.5400E+00  0.5400E+00
      6.894  0.0000E+00  0.0000E+00  0.5400E+00  0.5400E+00
      7.007  0.0000E+00  0.0000E+00  0.5400E+00  0.5400E+00
      7.120  0.0000E+00  0.0000E+00  0.5400E+00  0.5400E+00
      7.232  0.0000E+00  0.0000E+00  0.5400E+00  0.5400E+00
      7.345  0.0000E+00  0.0000E+00  0.5400E+00  0.5400E+00
      7.458  0.0000E+00  0.0000E+00  0.5400E+00  0.5400E+00
      7.571  0.0000E+00  0.0000E+00  0.5400E+00  0.5400E+00
      7.683  0.0000E+00  0.0000E+00  0.5400E+00  0.5400E+00
      7.796  0.0000E+00  0.0000E+00  0.5400E+00  0.5400E+00
