 166 166   0   0
  0.2395394E+02  0.2592932E-08  0.2611030E-08  0.6834792E-09  0.5000000E-15
  1.000000000000000E-004
  CAR 
 Co–organic framework                  
      6.75077274    -28.42974532  301     -0.89292438      1.00000000
    -28.430  0.0000E+00  0.0000E+00  0.0000E+00  0.0000E+00
    -28.312  0.0000E+00  0.0000E+00  0.0000E+00  0.0000E+00
    -28.195  0.0000E+00  0.0000E+00  0.0000E+00  0.0000E+00
    -28.078  0.0000E+00  0.0000E+00  0.0000E+00  0.0000E+00
    -27.961  0.0000E+00  0.0000E+00  0.0000E+00  0.0000E+00
    -27.843  0.0000E+00  0.0000E+00  0.0000E+00  0.0000E+00
    -27.726  0.0000E+00  0.0000E+00  0.0000E+00  0.0000E+00
    -27.609  0.0000E+00  0.0000E+00  0.0000E+00  0.0000E+00
    -27.492  0.0000E+00  0.0000E+00  0.0000E+00  0.0000E+00
    -27.374  0.0000E+00  0.0000E+00  0.0000E+00  0.0000E+00
    -27.257  0.0000E+00  0.0000E+00  0.0000E+00  0.0000E+00
    -27.140  0.0000E+00  0.0000E+00  0.0000E+00  0.0000E+00
    -27.023  0.2436E-09  0.2082E-09  0.2856E-10  0.2442E-10
    -26.905  0.1484E-03  0.1384E-03  0.1740E-04  0.1623E-04
    -26.788  0.7408E-02  0.7371E-02  0.8861E-03  0.8806E-03
    -26.671  0.9711E-03  0.1018E-02  0.1000E-02  0.1000E-02
    -26.553  0.2600E-07  0.2966E-07  0.1000E-02  0.1000E-02
    -26.436  0.1893E-16  0.2462E-16  0.1000E-02  0.1000E-02
    -26.319  0.0000E+00  0.0000E+00  0.1000E-02  0.1000E-02
    -26.202  0.0000E+00  0.0000E+00  0.1000E-02  0.1000E-02
    -26.084  0.2843E-14  0.2138E-14  0.1000E-02  0.1000E-02
    -25.967  0.4655E-06  0.3967E-06  0.1000E-02  0.1000E-02
    -25.850  0.2475E-02  0.2363E-02  0.1290E-02  0.1277E-02
    -25.733  0.6027E-02  0.6136E-02  0.1997E-02  0.1997E-02
    -25.615  0.2431E-04  0.2736E-04  0.2000E-02  0.2000E-02
    -25.498  0.5083E-11  0.6471E-11  0.2000E-02  0.2000E-02
    -25.381  0.0000E+00  0.0000E+00  0.2000E-02  0.2000E-02
    -25.263  0.0000E+00  0.0000E+00  0.2000E-02  0.2000E-02
    -25.146  0.0000E+00  0.0000E+00  0.2000E-02  0.2000E-02
    -25.029  0.0000E+00  0.0000E+00  0.2000E-02  0.2000E-02
    -24.912  0.1120E-14  0.0000E+00  0.2000E-02  0.2000E-02
    -24.794  0.2755E-06  0.7337E-12  0.2000E-02  0.2000E-02
    -24.677  0.2121E-02  0.9202E-05  0.2249E-02  0.2001E-02
    -24.560  0.8978E-02  0.5118E-02  0.3302E-02  0.2601E-02
    -24.443  0.5934E-02  0.9447E-02  0.3998E-02  0.3709E-02
    -24.325  0.1679E-02  0.2480E-02  0.4194E-02  0.4000E-02
    -24.208  0.3837E-01  0.2239E-02  0.8694E-02  0.4263E-02
    -24.091  0.4983E-01  0.4275E-01  0.1454E-01  0.9276E-02
    -23.974  0.4465E-01  0.5642E-01  0.1977E-01  0.1589E-01
    -23.856  0.1934E-02  0.3498E-01  0.2000E-01  0.1999E-01
    -23.739  0.1424E-06  0.5092E-04  0.2000E-01  0.2000E-01
    -23.622  0.3522E-15  0.4908E-11  0.2000E-01  0.2000E-01
    -23.504  0.0000E+00  0.0000E+00  0.2000E-01  0.2000E-01
    -23.387  0.0000E+00  0.0000E+00  0.2000E-01  0.2000E-01
    -23.270  0.0000E+00  0.0000E+00  0.2000E-01  0.2000E-01
    -23.153  0.0000E+00  0.0000E+00  0.2000E-01  0.2000E-01
    -23.035  0.1918E-12  0.0000E+00  0.2000E-01  0.2000E-01
    -22.918  0.4602E-05  0.2329E-14  0.2000E-01  0.2000E-01
    -22.801  0.5184E-02  0.4167E-06  0.2061E-01  0.2000E-01
    -22.684  0.1166E-01  0.2597E-02  0.2198E-01  0.2030E-01
    -22.566  0.4156E-03  0.1365E-01  0.2202E-01  0.2191E-01
    -22.449  0.1961E-01  0.8978E-03  0.2432E-01  0.2201E-01
    -22.332  0.9209E-01  0.7516E-02  0.3512E-01  0.2289E-01
    -22.215  0.4042E-01  0.3870E-01  0.3986E-01  0.2743E-01
    -22.097  0.1157E-02  0.9354E-01  0.4000E-01  0.3840E-01
    -21.980  0.4189E-04  0.1365E-01  0.4000E-01  0.4000E-01
    -21.863  0.1071E-01  0.8950E-05  0.4126E-01  0.4000E-01
    -21.745  0.6104E-01  0.7415E-02  0.4842E-01  0.4087E-01
    -21.628  0.6323E-01  0.5798E-01  0.5583E-01  0.4767E-01
    -21.511  0.1419E-02  0.6998E-01  0.5600E-01  0.5588E-01
    -21.394  0.3509E-07  0.1062E-02  0.5600E-01  0.5600E-01
    -21.276  0.3124E-16  0.3658E-08  0.5600E-01  0.5600E-01
    -21.159  0.0000E+00  0.0000E+00  0.5600E-01  0.5600E-01
    -21.042  0.0000E+00  0.0000E+00  0.5600E-01  0.5600E-01
    -20.925  0.0000E+00  0.0000E+00  0.5600E-01  0.5600E-01
    -20.807  0.0000E+00  0.0000E+00  0.5600E-01  0.5600E-01
    -20.690  0.0000E+00  0.0000E+00  0.5600E-01  0.5600E-01
    -20.573  0.0000E+00  0.0000E+00  0.5600E-01  0.5600E-01
    -20.455  0.0000E+00  0.0000E+00  0.5600E-01  0.5600E-01
    -20.338  0.0000E+00  0.0000E+00  0.5600E-01  0.5600E-01
    -20.221  0.0000E+00  0.0000E+00  0.5600E-01  0.5600E-01
    -20.104  0.0000E+00  0.0000E+00  0.5600E-01  0.5600E-01
    -19.986  0.0000E+00  0.0000E+00  0.5600E-01  0.5600E-01
    -19.869  0.0000E+00  0.0000E+00  0.5600E-01  0.5600E-01
    -19.752  0.0000E+00  0.0000E+00  0.5600E-01  0.5600E-01
    -19.635  0.0000E+00  0.0000E+00  0.5600E-01  0.5600E-01
    -19.517  0.0000E+00  0.0000E+00  0.5600E-01  0.5600E-01
    -19.400  0.0000E+00  0.0000E+00  0.5600E-01  0.5600E-01
    -19.283  0.0000E+00  0.0000E+00  0.5600E-01  0.5600E-01
    -19.166  0.0000E+00  0.0000E+00  0.5600E-01  0.5600E-01
    -19.048  0.0000E+00  0.0000E+00  0.5600E-01  0.5600E-01
    -18.931  0.3077E-15  0.0000E+00  0.5600E-01  0.5600E-01
    -18.814  0.1316E-06  0.1435E-08  0.5600E-01  0.5600E-01
    -18.696  0.1685E-02  0.3167E-03  0.5620E-01  0.5604E-01
    -18.579  0.6784E-02  0.7676E-02  0.5699E-01  0.5694E-01
    -18.462  0.5814E-04  0.5352E-03  0.5700E-01  0.5700E-01
    -18.345  0.3118E-10  0.5295E-08  0.5700E-01  0.5700E-01
    -18.227  0.1170E-10  0.1168E-14  0.5700E-01  0.5700E-01
    -18.110  0.4060E-04  0.2995E-06  0.5700E-01  0.5700E-01
    -17.993  0.1857E-01  0.3352E-02  0.5918E-01  0.5739E-01
    -17.876  0.4799E-01  0.4730E-01  0.6481E-01  0.6294E-01
    -17.758  0.1613E-02  0.1755E-01  0.6500E-01  0.6500E-01
    -17.641  0.1973E-07  0.1599E-04  0.6500E-01  0.6500E-01
    -17.524  0.7574E-17  0.9881E-12  0.6500E-01  0.6500E-01
    -17.407  0.0000E+00  0.0000E+00  0.6500E-01  0.6500E-01
    -17.289  0.0000E+00  0.0000E+00  0.6500E-01  0.6500E-01
    -17.172  0.0000E+00  0.0000E+00  0.6500E-01  0.6500E-01
    -17.055  0.5837E-10  0.2612E-11  0.6500E-01  0.6500E-01
    -16.937  0.7784E-04  0.1749E-04  0.6501E-01  0.6500E-01
    -16.820  0.7005E-02  0.5716E-02  0.6583E-01  0.6567E-01
    -16.703  0.1445E-02  0.2793E-02  0.6600E-01  0.6600E-01
    -16.586  0.8211E-07  0.7146E-06  0.6600E-01  0.6600E-01
    -16.468  0.1363E-15  0.6135E-14  0.6600E-01  0.6600E-01
    -16.351  0.7918E-10  0.4228E-12  0.6600E-01  0.6600E-01
    -16.234  0.1069E-03  0.7764E-05  0.6601E-01  0.6600E-01
    -16.117  0.2643E-01  0.1063E-01  0.6911E-01  0.6725E-01
    -15.999  0.4122E-01  0.5292E-01  0.7395E-01  0.7345E-01
    -15.882  0.4574E-03  0.4661E-02  0.7400E-01  0.7400E-01
    -15.765  0.8330E-09  0.2217E-06  0.7400E-01  0.7400E-01
    -15.647  0.1385E-12  0.4147E-15  0.7400E-01  0.7400E-01
    -15.530  0.3866E-05  0.1709E-07  0.7400E-01  0.7400E-01
    -15.413  0.4256E-02  0.8341E-03  0.7450E-01  0.7410E-01
    -15.296  0.4264E-02  0.7510E-02  0.7500E-01  0.7498E-01
    -15.178  0.3897E-05  0.1838E-03  0.7500E-01  0.7500E-01
    -15.061  0.1407E-12  0.3972E-09  0.7500E-01  0.7500E-01
    -14.944  0.4024E-07  0.1043E-11  0.7500E-01  0.7500E-01
    -14.827  0.1385E-02  0.1111E-04  0.7516E-01  0.7500E-01
    -14.709  0.3108E-01  0.7911E-02  0.7881E-01  0.7593E-01
    -14.592  0.3404E-01  0.3971E-01  0.8280E-01  0.8059E-01
    -14.475  0.1721E-02  0.2048E-01  0.8300E-01  0.8299E-01
    -14.358  0.4470E-07  0.1004E-03  0.8300E-01  0.8300E-01
    -14.240  0.7266E-03  0.6243E-04  0.8309E-01  0.8301E-01
    -14.123  0.7581E-02  0.6840E-02  0.8397E-01  0.8381E-01
    -14.006  0.2202E-03  0.1625E-02  0.8400E-01  0.8400E-01
    -13.888  0.6047E-09  0.1176E-06  0.8400E-01  0.8400E-01
    -13.771  0.2477E-07  0.1319E-10  0.8400E-01  0.8400E-01
    -13.654  0.1774E-02  0.4533E-04  0.8421E-01  0.8401E-01
    -13.537  0.5278E-01  0.2029E-01  0.9040E-01  0.8638E-01
    -13.419  0.1365E-01  0.4690E-01  0.9200E-01  0.9188E-01
    -13.302  0.6381E-05  0.9861E-03  0.9200E-01  0.9200E-01
    -13.185  0.2039E-12  0.4781E-08  0.9200E-01  0.9200E-01
    -13.068  0.0000E+00  0.0000E+00  0.9200E-01  0.9200E-01
    -12.950  0.0000E+00  0.0000E+00  0.9200E-01  0.9200E-01
    -12.833  0.1893E-16  0.0000E+00  0.9200E-01  0.9200E-01
    -12.716  0.2585E-07  0.5002E-09  0.9200E-01  0.9200E-01
    -12.599  0.9691E-03  0.2030E-03  0.9211E-01  0.9202E-01
    -12.481  0.7409E-02  0.7550E-02  0.9298E-01  0.9291E-01
    -12.364  0.1488E-03  0.7739E-03  0.9300E-01  0.9300E-01
    -12.247  0.3321E-09  0.1395E-07  0.9300E-01  0.9300E-01
    -12.129  0.9340E-04  0.4004E-08  0.9301E-01  0.9300E-01
    -12.012  0.7134E-02  0.4796E-03  0.9385E-01  0.9306E-01
    -11.895  0.8780E-02  0.7835E-02  0.9488E-01  0.9397E-01
    -11.778  0.4497E-01  0.2536E-01  0.1002E+00  0.9695E-01
    -11.660  0.3227E-01  0.4881E-01  0.1039E+00  0.1027E+00
    -11.543  0.3114E-01  0.1195E-01  0.1076E+00  0.1041E+00
    -11.426  0.2764E-01  0.3025E-01  0.1108E+00  0.1076E+00
    -11.309  0.9901E-02  0.2828E-01  0.1120E+00  0.1109E+00
    -11.191  0.4359E-02  0.9038E-02  0.1125E+00  0.1120E+00
    -11.074  0.6079E-02  0.2921E-02  0.1132E+00  0.1123E+00
    -10.957  0.2253E-01  0.6122E-02  0.1159E+00  0.1131E+00
    -10.839  0.7143E-02  0.2190E-01  0.1167E+00  0.1156E+00
    -10.722  0.1492E-01  0.4912E-02  0.1184E+00  0.1162E+00
    -10.605  0.1387E-01  0.1588E-01  0.1201E+00  0.1181E+00
    -10.488  0.1140E-01  0.2296E-01  0.1214E+00  0.1208E+00
    -10.370  0.1907E-01  0.1272E-01  0.1236E+00  0.1222E+00
    -10.253  0.2949E-01  0.1664E-01  0.1271E+00  0.1242E+00
    -10.136  0.2052E-01  0.1844E-01  0.1295E+00  0.1264E+00
    -10.019  0.2952E-01  0.2001E-01  0.1330E+00  0.1287E+00
     -9.901  0.2177E-01  0.3071E-01  0.1355E+00  0.1323E+00
     -9.784  0.1977E-01  0.2117E-01  0.1378E+00  0.1348E+00
     -9.667  0.3128E-01  0.1721E-01  0.1415E+00  0.1368E+00
     -9.550  0.1218E-01  0.3575E-01  0.1429E+00  0.1410E+00
     -9.432  0.1538E-01  0.1620E-01  0.1447E+00  0.1429E+00
     -9.315  0.4214E-01  0.1285E-01  0.1497E+00  0.1444E+00
     -9.198  0.2036E-01  0.4090E-01  0.1521E+00  0.1492E+00
     -9.080  0.3368E-01  0.2248E-01  0.1560E+00  0.1518E+00
     -8.963  0.3837E-01  0.2921E-01  0.1605E+00  0.1553E+00
     -8.846  0.2447E-01  0.3788E-01  0.1634E+00  0.1597E+00
     -8.729  0.4208E-01  0.2142E-01  0.1683E+00  0.1622E+00
     -8.611  0.2126E-01  0.4125E-01  0.1708E+00  0.1671E+00
     -8.494  0.5857E-01  0.3358E-01  0.1777E+00  0.1710E+00
     -8.377  0.1380E-01  0.5184E-01  0.1793E+00  0.1771E+00
     -8.260  0.1830E-01  0.2350E-01  0.1814E+00  0.1798E+00
     -8.142  0.4407E-01  0.2673E-01  0.1866E+00  0.1830E+00
     -8.025  0.2933E-01  0.4349E-01  0.1901E+00  0.1881E+00
     -7.908  0.1875E-01  0.2707E-01  0.1923E+00  0.1912E+00
     -7.791  0.3302E-01  0.1972E-01  0.1961E+00  0.1936E+00
     -7.673  0.1165E-01  0.2796E-01  0.1975E+00  0.1968E+00
     -7.556  0.1231E-01  0.5132E-02  0.1989E+00  0.1974E+00
     -7.439  0.4772E-01  0.5282E-02  0.2045E+00  0.1981E+00
     -7.321  0.2089E-01  0.2327E-01  0.2070E+00  0.2008E+00
     -7.204  0.9647E-02  0.5041E-01  0.2081E+00  0.2067E+00
     -7.087  0.6178E-01  0.4920E-02  0.2154E+00  0.2073E+00
     -6.970  0.8348E-01  0.5961E-01  0.2251E+00  0.2143E+00
     -6.852  0.4860E-01  0.8451E-01  0.2308E+00  0.2242E+00
     -6.735  0.2183E-01  0.2485E-01  0.2334E+00  0.2271E+00
     -6.618  0.5082E-02  0.3600E-01  0.2340E+00  0.2313E+00
     -6.501  0.5708E-05  0.2059E-01  0.2340E+00  0.2337E+00
     -6.383  0.8034E-02  0.2374E-02  0.2349E+00  0.2340E+00
     -6.266  0.4613E-01  0.9210E-03  0.2404E+00  0.2341E+00
     -6.149  0.2247E-01  0.2496E-01  0.2430E+00  0.2370E+00
     -6.031  0.2434E-01  0.4158E-01  0.2458E+00  0.2419E+00
     -5.914  0.4549E-01  0.2276E-02  0.2512E+00  0.2422E+00
     -5.797  0.2384E-01  0.6990E-02  0.2540E+00  0.2430E+00
     -5.680  0.3894E-01  0.8457E-02  0.2585E+00  0.2440E+00
     -5.562  0.2094E-01  0.4119E-01  0.2610E+00  0.2488E+00
     -5.445  0.2026E-01  0.3979E-01  0.2634E+00  0.2535E+00
     -5.328  0.3767E-01  0.2429E-01  0.2678E+00  0.2563E+00
     -5.211  0.5041E-01  0.4469E-01  0.2737E+00  0.2616E+00
     -5.093  0.6161E-01  0.2216E-01  0.2809E+00  0.2642E+00
     -4.976  0.3399E-01  0.2900E-01  0.2849E+00  0.2676E+00
     -4.859  0.2319E-01  0.3945E-01  0.2876E+00  0.2722E+00
     -4.742  0.3809E-01  0.2987E-01  0.2921E+00  0.2757E+00
     -4.624  0.4724E-01  0.2007E-01  0.2976E+00  0.2781E+00
     -4.507  0.5721E-01  0.6014E-01  0.3043E+00  0.2851E+00
     -4.390  0.3388E-01  0.3522E-01  0.3083E+00  0.2892E+00
     -4.272  0.5448E-01  0.4051E-01  0.3147E+00  0.2940E+00
     -4.155  0.1917E-01  0.4447E-01  0.3170E+00  0.2992E+00
     -4.038  0.7063E-02  0.7132E-01  0.3178E+00  0.3076E+00
     -3.921  0.9808E-02  0.2916E-01  0.3189E+00  0.3110E+00
     -3.803  0.2899E-01  0.3935E-01  0.3223E+00  0.3156E+00
     -3.686  0.4075E-01  0.2045E-01  0.3271E+00  0.3180E+00
     -3.569  0.4143E-01  0.1087E-01  0.3320E+00  0.3193E+00
     -3.452  0.4876E-01  0.3136E-01  0.3377E+00  0.3230E+00
     -3.334  0.5310E-01  0.5049E-01  0.3439E+00  0.3289E+00
     -3.217  0.4180E-01  0.3133E-01  0.3488E+00  0.3325E+00
     -3.100  0.8243E-02  0.3844E-02  0.3498E+00  0.3330E+00
     -2.983  0.5088E-01  0.8706E-05  0.3557E+00  0.3330E+00
     -2.865  0.9162E-01  0.4978E-02  0.3665E+00  0.3336E+00
     -2.748  0.1022E+00  0.1693E-01  0.3785E+00  0.3356E+00
     -2.631  0.5672E-01  0.3667E-02  0.3851E+00  0.3360E+00
     -2.513  0.7999E-01  0.1895E-02  0.3945E+00  0.3362E+00
     -2.396  0.4578E-01  0.6980E-02  0.3999E+00  0.3370E+00
     -2.279  0.5142E-02  0.2553E-01  0.4005E+00  0.3400E+00
     -2.162  0.1037E-01  0.3025E-01  0.4017E+00  0.3436E+00
     -2.044  0.3839E-01  0.1030E-01  0.4062E+00  0.3448E+00
     -1.927  0.2963E-01  0.1779E-02  0.4097E+00  0.3450E+00
     -1.810  0.2088E-01  0.9371E-04  0.4121E+00  0.3450E+00
     -1.693  0.3703E-01  0.7134E-02  0.4165E+00  0.3458E+00
     -1.575  0.1613E-01  0.5248E-02  0.4184E+00  0.3465E+00
     -1.458  0.2145E-01  0.5169E-01  0.4209E+00  0.3525E+00
     -1.341  0.3564E-01  0.4245E-01  0.4251E+00  0.3575E+00
     -1.223  0.1566E-01  0.6542E-01  0.4269E+00  0.3652E+00
     -1.106  0.7951E-02  0.1012E+00  0.4278E+00  0.3770E+00
     -0.989  0.1498E-02  0.2533E-01  0.4280E+00  0.3800E+00
     -0.872  0.9156E-07  0.1131E-01  0.4280E+00  0.3813E+00
     -0.754  0.1281E-08  0.8613E-02  0.4280E+00  0.3823E+00
     -0.637  0.3022E-03  0.2574E-01  0.4280E+00  0.3854E+00
     -0.520  0.7667E-02  0.5355E-01  0.4289E+00  0.3916E+00
     -0.403  0.5581E-03  0.3959E-01  0.4290E+00  0.3963E+00
     -0.285  0.6274E-05  0.6128E-02  0.4290E+00  0.3970E+00
     -0.168  0.4720E-02  0.6352E-02  0.4296E+00  0.3977E+00
     -0.051  0.3799E-02  0.2327E-02  0.4300E+00  0.3980E+00
      0.066  0.1283E-03  0.2292E-01  0.4300E+00  0.4007E+00
      0.184  0.7318E-02  0.8001E-01  0.4309E+00  0.4101E+00
      0.301  0.1085E-02  0.4038E-01  0.4310E+00  0.4148E+00
      0.418  0.6799E-02  0.1545E-02  0.4318E+00  0.4150E+00
      0.536  0.5129E-01  0.2027E-01  0.4378E+00  0.4174E+00
      0.653  0.1386E-01  0.5156E-01  0.4394E+00  0.4234E+00
      0.770  0.4789E-02  0.6760E-01  0.4400E+00  0.4314E+00
      0.887  0.6419E-05  0.6957E-01  0.4400E+00  0.4395E+00
      1.005  0.3649E-12  0.4117E-02  0.4400E+00  0.4400E+00
      1.122  0.7953E-16  0.1685E-06  0.4400E+00  0.4400E+00
      1.239  0.6063E-07  0.3304E-15  0.4400E+00  0.4400E+00
      1.356  0.1529E-02  0.8374E-08  0.4402E+00  0.4400E+00
      1.474  0.1473E-01  0.6404E-03  0.4419E+00  0.4401E+00
      1.591  0.2978E-02  0.1115E-01  0.4423E+00  0.4414E+00
      1.708  0.8401E-02  0.6669E-02  0.4432E+00  0.4422E+00
      1.826  0.1231E-01  0.2050E-01  0.4447E+00  0.4446E+00
      1.943  0.2686E-02  0.3683E-02  0.4450E+00  0.4450E+00
      2.060  0.8388E-05  0.1210E-05  0.4450E+00  0.4450E+00
      2.177  0.1164E-01  0.1379E-03  0.4464E+00  0.4450E+00
      2.295  0.6881E-01  0.2062E-01  0.4544E+00  0.4474E+00
      2.412  0.7020E-01  0.6435E-01  0.4627E+00  0.4550E+00
      2.529  0.2304E-01  0.6296E-01  0.4654E+00  0.4624E+00
      2.646  0.6204E-02  0.1670E-01  0.4661E+00  0.4643E+00
      2.764  0.9990E-02  0.1294E-01  0.4673E+00  0.4658E+00
      2.881  0.6252E-02  0.1831E-02  0.4680E+00  0.4661E+00
      2.998  0.8886E-02  0.1492E-01  0.4690E+00  0.4678E+00
      3.115  0.2296E-01  0.9406E-02  0.4717E+00  0.4689E+00
      3.233  0.2395E-01  0.1794E-01  0.4745E+00  0.4710E+00
      3.350  0.2055E-01  0.2019E-01  0.4770E+00  0.4734E+00
      3.467  0.3737E-02  0.2453E-01  0.4774E+00  0.4763E+00
      3.585  0.1582E-01  0.6353E-02  0.4792E+00  0.4770E+00
      3.702  0.7232E-02  0.4380E-02  0.4801E+00  0.4775E+00
      3.819  0.8108E-02  0.1357E-01  0.4810E+00  0.4791E+00
      3.936  0.1817E-01  0.1607E-01  0.4832E+00  0.4810E+00
      4.054  0.1929E-01  0.1991E-01  0.4854E+00  0.4833E+00
      4.171  0.2941E-01  0.2528E-01  0.4889E+00  0.4863E+00
      4.288  0.3172E-01  0.3676E-01  0.4926E+00  0.4906E+00
      4.405  0.2555E-01  0.1658E-01  0.4956E+00  0.4925E+00
      4.523  0.2409E-01  0.1491E-01  0.4984E+00  0.4943E+00
      4.640  0.2215E-01  0.2449E-01  0.5010E+00  0.4972E+00
      4.757  0.2986E-01  0.2504E-01  0.5045E+00  0.5001E+00
      4.874  0.3664E-01  0.3625E-01  0.5088E+00  0.5044E+00
      4.992  0.3667E-01  0.4242E-01  0.5131E+00  0.5093E+00
      5.109  0.2427E-01  0.3974E-01  0.5160E+00  0.5140E+00
      5.226  0.2518E-03  0.1701E-01  0.5160E+00  0.5160E+00
      5.344  0.3321E-09  0.1721E-03  0.5160E+00  0.5160E+00
      5.461  0.0000E+00  0.2483E-09  0.5160E+00  0.5160E+00
      5.578  0.0000E+00  0.0000E+00  0.5160E+00  0.5160E+00
      5.695  0.0000E+00  0.0000E+00  0.5160E+00  0.5160E+00
      5.813  0.0000E+00  0.0000E+00  0.5160E+00  0.5160E+00
      5.930  0.0000E+00  0.0000E+00  0.5160E+00  0.5160E+00
      6.047  0.0000E+00  0.0000E+00  0.5160E+00  0.5160E+00
      6.164  0.0000E+00  0.0000E+00  0.5160E+00  0.5160E+00
      6.282  0.0000E+00  0.0000E+00  0.5160E+00  0.5160E+00
      6.399  0.0000E+00  0.0000E+00  0.5160E+00  0.5160E+00
      6.516  0.0000E+00  0.0000E+00  0.5160E+00  0.5160E+00
      6.634  0.0000E+00  0.0000E+00  0.5160E+00  0.5160E+00
      6.751  0.0000E+00  0.0000E+00  0.5160E+00  0.5160E+00
