Co–organic framework                  
           1
    25.928330    0.224329   -0.032948
    13.158870   22.551985    0.002720
    -0.008734    0.005774    6.834783
   O    C    H    Co   Li
  56  73  18  18   1
Direct configuration=     1
   0.05537220  0.26007772  0.30221862
   0.03411133  0.30508943  0.94497916
   0.10417513  0.26438286  0.71318008
   0.39743973  0.58727924  0.64942101
   0.68666909  0.05918086  0.31110597
   0.66305603  0.03687412  0.95588104
   0.63679165  0.10428609  0.71709610
   0.01674280  0.39660206  0.64157325
   0.25727919  0.68810447  0.31310565
   0.30448867  0.66466095  0.95862950
   0.26371877  0.63839316  0.71945841
   0.58487989  0.02368345  0.64539058
   0.29558372  0.03795891  0.36342914
   0.22704364  0.07919133  0.59858801
   0.63818036  0.36698836  0.70788777
   0.56886195  0.40870010  0.94033241
   0.27233509  0.08233109  0.00315974
   0.66682888  0.29579573  0.37173354
   0.69467221  0.22691502  0.60434955
   0.00491655  0.63073821  0.69905539
   0.03224799  0.56278087  0.93492753
   0.64722938  0.27295999  0.00791492
   0.04037923  0.66591029  0.36543094
   0.08040096  0.69352725  0.60149554
   0.36761344  0.00175815  0.69787365
   0.40790453  0.02912453  0.93385711
   0.08593645  0.64424400  0.00509152
   0.70194550  0.96624898  0.62185078
   0.77089045  0.92540330  0.38638773
   0.37449844  0.63388712  0.29217559
   0.44360280  0.59372288  0.05722073
   0.72596135  0.92035684  0.97892033
   0.33553083  0.70336683  0.62438526
   0.30658423  0.77169025  0.38762193
   0.99033244  0.37719110  0.29088551
   0.96940051  0.44300355  0.04995054
   0.35752384  0.72692764  0.98134354
   0.97177694  0.32042160  0.61522633
   0.91439743  0.32112313  0.36307259
   0.63228963  0.99864532  0.28886132
   0.59213048  0.97092615  0.05255227
   0.90708799  0.37425991  0.95200377
   0.94422676  0.74718013  0.67300141
   0.96893501  0.70229716  0.03301057
   0.90037138  0.74269575  0.26866610
   0.61582816  0.41350602  0.34388456
   0.31107789  0.94284123  0.67174953
   0.33225903  0.96658684  0.03148162
   0.36073264  0.89876920  0.26859180
   0.98343051  0.60835475  0.33870355
   0.75823446  0.29525419  0.67537198
   0.70625642  0.32982882  0.03864832
   0.75197088  0.35359821  0.26883666
   0.41280884  0.98024174  0.33802494
   0.68901172  0.48338002  0.64996195
   0.77594928  0.44448658  0.45889400
   0.10784186  0.21784080  0.22616642
   0.14895737  0.17180669  0.34872651
   0.08613073  0.26397963  0.88560431
   0.12449461  0.21672141  0.02592024
   0.45014366  0.54613597  0.57088297
   0.49170435  0.50033365  0.69191167
   0.67578752  0.11095844  0.23274708
   0.67999412  0.15153131  0.35507963
   0.65301487  0.08744754  0.89277501
   0.66051528  0.12675722  0.03176726
   0.00889479  0.44778706  0.56594386
   0.01548649  0.48714677  0.68759666
   0.21672062  0.67669969  0.23408967
   0.17142158  0.68051628  0.35499599
   0.26405045  0.65440690  0.89512478
   0.21698672  0.66129640  0.03329440
   0.54410678  0.01245100  0.56586648
   0.49862651  0.01663888  0.68652471
   0.24382730  0.07887111  0.42402701
   0.20434645  0.12586594  0.28246803
   0.58625738  0.40836760  0.76661013
   0.54749463  0.45528865  0.62487630
   0.22048037  0.12480075  0.08167129
   0.17975278  0.17080019  0.95942931
   0.67785614  0.24425008  0.43001043
   0.67034268  0.20610567  0.28745204
   0.01547050  0.57969243  0.76012304
   0.00710617  0.54136562  0.61947010
   0.65585219  0.22188993  0.08569198
   0.65089535  0.18139314  0.96390775
   0.08049075  0.67699089  0.42673760
   0.12705638  0.66995977  0.28625304
   0.40781031  0.01282815  0.75893315
   0.45423273  0.00594766  0.61830233
   0.12703623  0.65475208  0.08498027
   0.17257560  0.65074569  0.96439807
   0.75375026  0.92566185  0.56090340
   0.79400357  0.87873356  0.70011750
   0.42626110  0.59345731  0.23132446
   0.46618156  0.54614648  0.37074644
   0.77856252  0.87906660  0.90103067
   0.82083002  0.83363999  0.02212323
   0.32381275  0.75465997  0.56252071
   0.33040152  0.79437545  0.70126959
   0.98412805  0.42638135  0.22640464
   0.99393318  0.46389975  0.36532645
   0.34582980  0.77895486  0.90251496
   0.34898487  0.82060830  0.02296086
   0.92611025  0.32129531  0.54732452
   0.88144948  0.32531612  0.69117933
   0.59175405  0.98838943  0.22697314
   0.54433583  0.99660038  0.36537498
   0.87297035  0.35478604  0.87458305
   0.82375709  0.36354518  0.98504078
   0.89184086  0.78853822  0.75223326
   0.84961499  0.83397983  0.63125718
   0.91692673  0.74252691  0.09389653
   0.87651332  0.78901187  0.95343334
   0.56359413  0.45501908  0.42442232
   0.52193991  0.50109228  0.30354090
   0.32245000  0.89101139  0.75197712
   0.31923407  0.84938779  0.63164443
   0.34405420  0.91527334  0.09344652
   0.33768621  0.87565128  0.95347963
   0.99216913  0.55737804  0.41827081
   0.98619384  0.51769686  0.29665395
   0.79440050  0.31241181  0.75180138
   0.84366435  0.30370433  0.63951309
   0.74562341  0.34233661  0.08860604
   0.78692747  0.34063715  0.93775135
   0.45408437  0.99066682  0.41748521
   0.49968200  0.98629442  0.29683825
   0.73221734  0.46396280  0.55470552
   0.13707935  0.17209428  0.50187966
   0.47986426  0.49982792  0.84460543
   0.69131767  0.13982338  0.50872255
   0.02693777  0.47530757  0.84114621
   0.17099667  0.69223621  0.50836504
   0.49808586  0.02860191  0.83968822
   0.19183987  0.17038303  0.80652635
   0.63964730  0.19301691  0.81018743
   0.17285309  0.63922239  0.81091438
   0.80971652  0.83335602  0.17574675
   0.36065483  0.80947052  0.17675943
   0.81257306  0.39391848  0.10877005
   0.86080131  0.83417854  0.47770091
   0.53360282  0.50129936  0.15045850
   0.30763460  0.86056229  0.47785555
   0.97501230  0.52950356  0.14301846
   0.85323322  0.27659128  0.50714291
   0.50006831  0.97446269  0.14365141
   0.31626646  0.64275048  0.51677000
   0.04594779  0.31646167  0.50803722
   0.64081998  0.04751357  0.51443198
   0.02485974  0.69052095  0.80176388
   0.35229477  0.02626396  0.13364191
   0.28678788  0.02255797  0.79938599
   0.62526842  0.35213826  0.14628614
   0.69411603  0.28407908  0.80411912
   0.02965003  0.62123656  0.13419656
   0.64392009  0.97560120  0.84884352
   0.97469600  0.31924524  0.15265130
   0.38574861  0.64557951  0.85256032
   0.71354449  0.97838668  0.18446973
   0.97254693  0.38545462  0.85145868
   0.31160818  0.71464306  0.18689576
   0.69227691  0.35055216  0.47733129
   0.95953746  0.68727761  0.46928868
   0.35651642  0.95737496  0.46833822
   0.82572663  0.35307439  0.34653243
Co–organic framework                  
           1
    26.027220    0.214853   -0.071273
    13.200214   22.618607   -0.014185
    -0.018845    0.006548    6.861598
   O    C    H    Co   Li
  56  73  18  18   1
Direct configuration=     2
   0.05545361  0.26020888  0.30304807
   0.03418473  0.30503406  0.94518673
   0.10434831  0.26424642  0.71258191
   0.39760032  0.58713364  0.64900910
   0.68708568  0.06023133  0.30895215
   0.66296406  0.03704802  0.95533549
   0.63726562  0.10392988  0.71895262
   0.01678619  0.39638163  0.64377362
   0.25754601  0.68853607  0.31285318
   0.30435190  0.66452581  0.95843006
   0.26375131  0.63833812  0.71880787
   0.58484517  0.02333604  0.64633626
   0.29556553  0.03798658  0.36326969
   0.22699609  0.07925751  0.59875340
   0.63828764  0.36687349  0.70779099
   0.56895213  0.40859902  0.94048195
   0.27213320  0.08258648  0.00361411
   0.66685926  0.29576315  0.37159176
   0.69465420  0.22691362  0.60425664
   0.00492743  0.63066636  0.69900807
   0.03222135  0.56275029  0.93482174
   0.64724501  0.27302006  0.00786581
   0.04024767  0.66588779  0.36538807
   0.08032724  0.69354250  0.60156771
   0.36765777  0.00179386  0.69779690
   0.40796852  0.02914014  0.93387208
   0.08581744  0.64420998  0.00488960
   0.70186118  0.96633013  0.62226888
   0.77096911  0.92536194  0.38666853
   0.37491268  0.63339719  0.29293729
   0.44376732  0.59356647  0.05757057
   0.72602645  0.92025630  0.97890027
   0.33540244  0.70352043  0.62436200
   0.30637138  0.77203101  0.38797542
   0.99058943  0.37703974  0.29208589
   0.96939474  0.44297760  0.05063158
   0.35766385  0.72695595  0.98142658
   0.97225465  0.32038141  0.61519399
   0.91431023  0.32114416  0.36234181
   0.63214415  0.99880760  0.28912211
   0.59214402  0.97114869  0.05310704
   0.90714090  0.37430848  0.95259609
   0.94430273  0.74714674  0.67295391
   0.96888532  0.70229794  0.03299891
   0.90036694  0.74269415  0.26879029
   0.61598354  0.41336758  0.34362555
   0.31108173  0.94291052  0.67150093
   0.33225319  0.96663022  0.03141486
   0.36076525  0.89877295  0.26861355
   0.98341907  0.60822276  0.33888067
   0.75830893  0.29521640  0.67534570
   0.70622394  0.32982019  0.03855498
   0.75196248  0.35356341  0.26886870
   0.41297505  0.98023742  0.33819838
   0.68902906  0.48335223  0.64995677
   0.77600749  0.44444630  0.45877469
   0.10803704  0.21767607  0.22754543
   0.14881093  0.17184304  0.34820096
   0.08589474  0.26436164  0.88408550
   0.12463260  0.21669996  0.02606029
   0.45002568  0.54626295  0.57055548
   0.49175961  0.50029495  0.69209735
   0.67607050  0.11038926  0.23395194
   0.67998704  0.15140989  0.35444966
   0.65280437  0.08756818  0.89149894
   0.66053000  0.12661539  0.03233313
   0.00895657  0.44748864  0.56488823
   0.01555944  0.48709326  0.68761843
   0.21654421  0.67659743  0.23396202
   0.17142585  0.68050251  0.35516471
   0.26417886  0.65444697  0.89494075
   0.21691966  0.66137959  0.03319631
   0.54428117  0.01254214  0.56619608
   0.49875534  0.01664575  0.68615542
   0.24390862  0.07881678  0.42405874
   0.20438083  0.12590016  0.28240333
   0.58609838  0.40852806  0.76628536
   0.54757011  0.45520499  0.62513087
   0.22069506  0.12458614  0.08188746
   0.17949656  0.17098504  0.95935295
   0.67785497  0.24425166  0.42997710
   0.67025385  0.20611696  0.28697921
   0.01545607  0.57976931  0.76027185
   0.00708934  0.54128866  0.61941652
   0.65586211  0.22171312  0.08572088
   0.65094930  0.18150187  0.96457287
   0.08067045  0.67699915  0.42656060
   0.12694334  0.66995285  0.28644713
   0.40773457  0.01282060  0.75907137
   0.45430895  0.00593901  0.61819790
   0.12707278  0.65478794  0.08541517
   0.17264948  0.65074117  0.96412883
   0.75363871  0.92577577  0.56123793
   0.79396777  0.87874175  0.70034592
   0.42634136  0.59339988  0.23106183
   0.46629465  0.54604860  0.37081061
   0.77863896  0.87903767  0.90046314
   0.82075668  0.83372796  0.02204480
   0.32395110  0.75445648  0.56297909
   0.33044918  0.79441450  0.70107884
   0.98420370  0.42645051  0.22680012
   0.99393800  0.46388535  0.36526961
   0.34588802  0.77902364  0.90215374
   0.34898466  0.82069524  0.02308812
   0.92594348  0.32128192  0.54750163
   0.88145569  0.32533967  0.69126401
   0.59167066  0.98841962  0.22739850
   0.54453224  0.99660209  0.36541268
   0.87285293  0.35477250  0.87448493
   0.82379217  0.36352452  0.98497105
   0.89168480  0.78866097  0.75234728
   0.84968531  0.83390537  0.63137283
   0.91691633  0.74255687  0.09373329
   0.87657250  0.78898621  0.95324191
   0.56352772  0.45505747  0.42449746
   0.52190809  0.50111257  0.30348672
   0.32245116  0.89104313  0.75213469
   0.31924338  0.84932058  0.63158170
   0.34404927  0.91523065  0.09330043
   0.33767827  0.87564453  0.95360478
   0.99215117  0.55743614  0.41805153
   0.98617288  0.51769794  0.29673283
   0.79440508  0.31241556  0.75174186
   0.84365266  0.30368299  0.63956041
   0.74562251  0.34236275  0.08869627
   0.78690433  0.34065299  0.93776943
   0.45403738  0.99065533  0.41724855
   0.49966963  0.98629931  0.29697424
   0.73215408  0.46401014  0.55481280
   0.13708303  0.17213937  0.50188178
   0.47985342  0.49983702  0.84469555
   0.69129229  0.13982864  0.50838077
   0.02694612  0.47530945  0.84109936
   0.17100292  0.69224364  0.50858420
   0.49808593  0.02859750  0.83958013
   0.19181955  0.17039054  0.80641414
   0.63964089  0.19301430  0.81024710
   0.17287634  0.63919872  0.81076873
   0.80971026  0.83335834  0.17573678
   0.36066529  0.80947507  0.17683540
   0.81256319  0.39393661  0.10882246
   0.86080396  0.83418504  0.47769246
   0.53359729  0.50132148  0.15039745
   0.30761801  0.86057266  0.47772209
   0.97500715  0.52951451  0.14300045
   0.85323501  0.27659041  0.50711446
   0.50006561  0.97445589  0.14364954
   0.31652890  0.64234354  0.51964254
   0.04464232  0.31757943  0.50511557
   0.63949797  0.04708039  0.51286717
   0.02493691  0.69046851  0.80176207
   0.35224723  0.02626859  0.13354996
   0.28687977  0.02234341  0.79889247
   0.62514683  0.35228488  0.14685004
   0.69412418  0.28406794  0.80392082
   0.02968709  0.62136308  0.13423366
   0.64430729  0.97568445  0.84877588
   0.97494119  0.31907952  0.15374478
   0.38531973  0.64560418  0.85128260
   0.71279109  0.97880120  0.18423986
   0.97274936  0.38505274  0.85044519
   0.31164659  0.71434939  0.18616160
   0.69219199  0.35070954  0.47713242
   0.95955845  0.68726793  0.46898374
   0.35629763  0.95746853  0.46890852
   0.82571540  0.35308812  0.34656083
Co–organic framework                  
           1
    25.968028    0.220525   -0.048333
    13.175467   22.578729   -0.004066
    -0.012793    0.006085    6.845548
   O    C    H    Co   Li
  56  73  18  18   1
Direct configuration=     3
   0.05540488  0.26013060  0.30255306
   0.03414092  0.30506709  0.94506281
   0.10424520  0.26432779  0.71293818
   0.39750467  0.58722048  0.64925437
   0.68683791  0.05960425  0.31023339
   0.66301903  0.03694425  0.95566081
   0.63698259  0.10414238  0.71784466
   0.01675977  0.39651322  0.64246188
   0.25738703  0.68827841  0.31300219
   0.30443347  0.66460649  0.95854962
   0.26373206  0.63837094  0.71919571
   0.58486562  0.02354340  0.64577305
   0.29557641  0.03797007  0.36336478
   0.22702440  0.07921803  0.59865485
   0.63822370  0.36694202  0.70784851
   0.56889833  0.40865933  0.94039264
   0.27225346  0.08243413  0.00334350
   0.66684118  0.29578258  0.37167624
   0.69466496  0.22691446  0.60431210
   0.00492095  0.63070924  0.69903636
   0.03223726  0.56276854  0.93488495
   0.64723571  0.27298420  0.00789495
   0.04032611  0.66590125  0.36541410
   0.08037117  0.69353342  0.60152490
   0.36763136  0.00177254  0.69784246
   0.40793037  0.02913081  0.93386292
   0.08588844  0.64423031  0.00501043
   0.70191135  0.96628173  0.62201975
   0.77092214  0.92538661  0.38650091
   0.37466552  0.63368949  0.29248248
   0.44366915  0.59365978  0.05736167
   0.72598764  0.92031628  0.97891216
   0.33547900  0.70342880  0.62437607
   0.30649820  0.77182771  0.38776487
   0.99043593  0.37713003  0.29136956
   0.96939801  0.44299310  0.05022558
   0.35758037  0.72693902  0.98137656
   0.97196987  0.32040527  0.61521174
   0.91436239  0.32113162  0.36277778
   0.63223082  0.99871080  0.28896686
   0.59213582  0.97101589  0.05277590
   0.90710922  0.37427950  0.95224268
   0.94425745  0.74716665  0.67298203
   0.96891494  0.70229749  0.03300602
   0.90036956  0.74269511  0.26871626
   0.61589097  0.41345015  0.34377967
   0.31107950  0.94286916  0.67164903
   0.33225669  0.96660433  0.03145462
   0.36074581  0.89877071  0.26860047
   0.98342584  0.60830153  0.33877530
   0.75826454  0.29523893  0.67536118
   0.70624332  0.32982535  0.03861075
   0.75196747  0.35358418  0.26884968
   0.41287592  0.98023995  0.33809443
   0.68901872  0.48336881  0.64995984
   0.77597282  0.44447032  0.45884569
   0.10792033  0.21777436  0.22672282
   0.14889836  0.17182138  0.34851474
   0.08603582  0.26413369  0.88499128
   0.12455030  0.21671272  0.02597636
   0.45009610  0.54618720  0.57075094
   0.49172662  0.50031804  0.69198652
   0.67590148  0.11072890  0.23323347
   0.67999141  0.15148234  0.35482546
   0.65293018  0.08749621  0.89226029
   0.66052108  0.12670004  0.03199590
   0.00891998  0.44766670  0.56551786
   0.01551594  0.48712518  0.68760528
   0.21664940  0.67665851  0.23403886
   0.17142326  0.68051073  0.35506412
   0.26410235  0.65442302  0.89504999
   0.21695967  0.66132996  0.03325490
   0.54417713  0.01248771  0.56599885
   0.49867862  0.01664161  0.68637516
   0.24386013  0.07884918  0.42403963
   0.20436035  0.12587973  0.28244174
   0.58619326  0.40843233  0.76647929
   0.54752505  0.45525490  0.62497896
   0.22056701  0.12471417  0.08175818
   0.17964934  0.17087479  0.95939906
   0.67785568  0.24425072  0.42999697
   0.67030692  0.20611024  0.28726140
   0.01546464  0.57972344  0.76018306
   0.00709938  0.54133460  0.61944863
   0.65585618  0.22181864  0.08570388
   0.65091699  0.18143698  0.96417597
   0.08056337  0.67699417  0.42666552
   0.12701068  0.66995701  0.28633179
   0.40777969  0.01282513  0.75898922
   0.45426353  0.00594415  0.61825992
   0.12705089  0.65476654  0.08515570
   0.17260550  0.65074384  0.96428912
   0.75370514  0.92570782  0.56103867
   0.79398906  0.87873688  0.70020984
   0.42629357  0.59343413  0.23121823
   0.46622721  0.54610699  0.37077212
   0.77859352  0.87905490  0.90080130
   0.82080043  0.83367548  0.02209168
   0.32386850  0.75457790  0.56270563
   0.33042082  0.79439118  0.70119236
   0.98415851  0.42640922  0.22656397
   0.99393514  0.46389394  0.36530351
   0.34585340  0.77898257  0.90236881
   0.34898476  0.82064336  0.02301212
   0.92604286  0.32128996  0.54739661
   0.88145197  0.32532562  0.69121347
   0.59172027  0.98840163  0.22714512
   0.54441514  0.99660102  0.36538955
   0.87292295  0.35478061  0.87454384
   0.82377127  0.36353684  0.98501254
   0.89177782  0.78858776  0.75227964
   0.84964336  0.83394979  0.63130376
   0.91692257  0.74253899  0.09383061
   0.87653726  0.78900151  0.95335589
   0.56356730  0.45503458  0.42445282
   0.52192707  0.50110047  0.30351910
   0.32245043  0.89102420  0.75204069
   0.31923784  0.84936069  0.63161917
   0.34405224  0.91525613  0.09338762
   0.33768297  0.87564856  0.95353020
   0.99216193  0.55740146  0.41818224
   0.98618536  0.51769730  0.29668587
   0.79440237  0.31241332  0.75177733
   0.84365962  0.30369573  0.63953227
   0.74562302  0.34234715  0.08864244
   0.78691812  0.34064354  0.93775870
   0.45406545  0.99066219  0.41738983
   0.49967697  0.98629639  0.29689319
   0.73219177  0.46398191  0.55474898
   0.13708083  0.17211246  0.50188044
   0.47985986  0.49983159  0.84464184
   0.69130750  0.13982550  0.50858462
   0.02694116  0.47530833  0.84112726
   0.17099915  0.69223921  0.50845350
   0.49808592  0.02860013  0.83964458
   0.19183169  0.17038606  0.80648110
   0.63964470  0.19301586  0.81021155
   0.17286251  0.63921283  0.81085553
   0.80971399  0.83335696  0.17574274
   0.36065903  0.80947235  0.17679006
   0.81256906  0.39392579  0.10879122
   0.86080238  0.83418116  0.47769748
   0.53360060  0.50130828  0.15043384
   0.30762793  0.86056647  0.47780170
   0.97501022  0.52950797  0.14301119
   0.85323395  0.27659093  0.50713142
   0.50006722  0.97445995  0.14365068
   0.31637173  0.64258639  0.51792958
   0.04542135  0.31691264  0.50686023
   0.64028645  0.04733924  0.51380517
   0.02489090  0.69049979  0.80176297
   0.35227560  0.02626584  0.13360493
   0.28682510  0.02247142  0.79918673
   0.62521919  0.35219742  0.14651401
   0.69411937  0.28407458  0.80403904
   0.02966500  0.62128756  0.13421123
   0.64407648  0.97563466  0.84881480
   0.97479474  0.31917838  0.15309225
   0.38557572  0.64558955  0.85204580
   0.71324031  0.97855401  0.18437880
   0.97262890  0.38529250  0.85104938
   0.31162385  0.71452463  0.18659963
   0.69224268  0.35061563  0.47725104
   0.95954601  0.68727369  0.46916550
   0.35642793  0.95741276  0.46856908
   0.82572209  0.35307993  0.34654391
Co–organic framework                  
           1
    25.953817    0.221887   -0.042825
    13.169526   22.569155   -0.001637
    -0.011340    0.005973    6.841694
   O    C    H    Co   Li
  56  73  18  18   1
Direct configuration=     4
   0.05539319  0.26011177  0.30243401
   0.03413038  0.30507503  0.94503301
   0.10422037  0.26434737  0.71302397
   0.39748164  0.58724137  0.64931345
   0.68677820  0.05945345  0.31054214
   0.66303224  0.03691929  0.95573909
   0.63691455  0.10419350  0.71757819
   0.01675350  0.39654486  0.64214619
   0.25734876  0.68821645  0.31303827
   0.30445310  0.66462589  0.95857830
   0.26372741  0.63837884  0.71928905
   0.58487058  0.02359327  0.64563742
   0.29557903  0.03796610  0.36338766
   0.22703122  0.07920853  0.59863113
   0.63820831  0.36695850  0.70786237
   0.56888538  0.40867383  0.94037117
   0.27228242  0.08239748  0.00327833
   0.66683683  0.29578726  0.37169658
   0.69466754  0.22691466  0.60432543
   0.00491939  0.63071955  0.69904315
   0.03224108  0.56277293  0.93490014
   0.64723347  0.27297558  0.00790198
   0.04034499  0.66590448  0.36542029
   0.08038174  0.69353123  0.60151457
   0.36762500  0.00176741  0.69785345
   0.40792119  0.02912856  0.93386075
   0.08590551  0.64423520  0.00503945
   0.70192344  0.96627008  0.62195978
   0.77091085  0.92539254  0.38646060
   0.37460607  0.63375980  0.29237313
   0.44364554  0.59368222  0.05731144
   0.72597830  0.92033071  0.97891503
   0.33549742  0.70340675  0.62437943
   0.30652874  0.77177881  0.38771417
   0.99039903  0.37715175  0.29119727
   0.96939883  0.44299683  0.05012787
   0.35756028  0.72693495  0.98136460
   0.97190133  0.32041102  0.61521623
   0.91437492  0.32112860  0.36288266
   0.63225169  0.99868751  0.28892947
   0.59213387  0.97098395  0.05269627
   0.90710161  0.37427252  0.95215767
   0.94424655  0.74717144  0.67298882
   0.96892207  0.70229738  0.03300771
   0.90037019  0.74269534  0.26869844
   0.61586868  0.41347002  0.34381680
   0.31107896  0.94285922  0.67168469
   0.33225753  0.96659811  0.03146419
   0.36074113  0.89877017  0.26859733
   0.98342748  0.60832048  0.33874991
   0.75825386  0.29524436  0.67536493
   0.70624799  0.32982659  0.03862416
   0.75196868  0.35358917  0.26884509
   0.41285207  0.98024057  0.33806949
   0.68901623  0.48337280  0.64996058
   0.77596447  0.44447610  0.45886280
   0.10789230  0.21779800  0.22652492
   0.14891938  0.17181616  0.34859019
   0.08606971  0.26407886  0.88520922
   0.12453050  0.21671580  0.02595623
   0.45011304  0.54616897  0.57079795
   0.49171869  0.50032359  0.69195986
   0.67586085  0.11081059  0.23306058
   0.67999244  0.15149977  0.35491587
   0.65296041  0.08747890  0.89244343
   0.66051896  0.12672040  0.03191473
   0.00891114  0.44770953  0.56566934
   0.01550547  0.48713286  0.68760214
   0.21667472  0.67667319  0.23405725
   0.17142264  0.68051270  0.35503992
   0.26408394  0.65441726  0.89507635
   0.21696929  0.66131802  0.03326898
   0.54415211  0.01247463  0.56595149
   0.49866015  0.01664062  0.68642811
   0.24384846  0.07885698  0.42403506
   0.20435542  0.12587481  0.28245100
   0.58621608  0.40840931  0.76652592
   0.54751421  0.45526691  0.62494242
   0.22053620  0.12474497  0.08172712
   0.17968610  0.17084827  0.95941007
   0.67785585  0.24425049  0.43000175
   0.67031968  0.20610862  0.28732927
   0.01546671  0.57971240  0.76016171
   0.00710180  0.54134564  0.61945634
   0.65585475  0.22184402  0.08569975
   0.65090923  0.18142137  0.96408050
   0.08053759  0.67699298  0.42669086
   0.12702689  0.66995801  0.28630398
   0.40779055  0.01282622  0.75896942
   0.45425260  0.00594539  0.61827488
   0.12704563  0.65476139  0.08509329
   0.17259490  0.65074449  0.96432773
   0.75372114  0.92569147  0.56099069
   0.79399419  0.87873570  0.70017708
   0.42628206  0.59344237  0.23125590
   0.46621098  0.54612103  0.37076289
   0.77858257  0.87905905  0.90088271
   0.82081095  0.83366285  0.02210294
   0.32384863  0.75460710  0.56263985
   0.33041398  0.79438557  0.70121971
   0.98414765  0.42639930  0.22650719
   0.99393445  0.46389601  0.36531166
   0.34584506  0.77897269  0.90242061
   0.34898479  0.82063088  0.02299385
   0.92606678  0.32129189  0.54737125
   0.88145108  0.32532224  0.69120131
   0.59173222  0.98839730  0.22708411
   0.54438696  0.99660077  0.36538407
   0.87293980  0.35478256  0.87455796
   0.82376624  0.36353981  0.98502253
   0.89180021  0.78857014  0.75226331
   0.84963327  0.83396048  0.63128715
   0.91692407  0.74253469  0.09385403
   0.87652878  0.78900519  0.95338334
   0.56357682  0.45502907  0.42444206
   0.52193164  0.50109756  0.30352688
   0.32245026  0.89101964  0.75201808
   0.31923650  0.84937033  0.63162817
   0.34405295  0.91526226  0.09340858
   0.33768411  0.87564953  0.95351224
   0.99216452  0.55739312  0.41821370
   0.98618836  0.51769715  0.29667455
   0.79440171  0.31241278  0.75178586
   0.84366129  0.30369880  0.63952549
   0.74562315  0.34234340  0.08862949
   0.78692144  0.34064127  0.93775611
   0.45407219  0.99066384  0.41742380
   0.49967874  0.98629569  0.29687368
   0.73220084  0.46397511  0.55473360
   0.13708031  0.17210599  0.50188013
   0.47986142  0.49983029  0.84462891
   0.69131115  0.13982475  0.50863367
   0.02693996  0.47530806  0.84113398
   0.17099824  0.69223814  0.50842205
   0.49808591  0.02860076  0.83966009
   0.19183461  0.17038498  0.80649721
   0.63964562  0.19301623  0.81020299
   0.17285918  0.63921623  0.81087643
   0.80971489  0.83335663  0.17574417
   0.36065753  0.80947170  0.17677916
   0.81257047  0.39392319  0.10878370
   0.86080200  0.83418023  0.47769869
   0.53360140  0.50130511  0.15044259
   0.30763032  0.86056498  0.47782086
   0.97501096  0.52950640  0.14301377
   0.85323369  0.27659105  0.50713550
   0.50006761  0.97446092  0.14365095
   0.31633401  0.64264480  0.51751740
   0.04560872  0.31675223  0.50727969
   0.64047615  0.04740144  0.51403018
   0.02487983  0.69050731  0.80176321
   0.35228242  0.02626517  0.13361814
   0.28681193  0.02250221  0.79925754
   0.62523662  0.35217638  0.14643312
   0.69411820  0.28407618  0.80406749
   0.02965968  0.62126940  0.13420588
   0.64402093  0.97562270  0.84882437
   0.97475954  0.31920216  0.15293530
   0.38563728  0.64558601  0.85222926
   0.71334841  0.97849454  0.18441197
   0.97259988  0.38535018  0.85119479
   0.31161835  0.71456678  0.18670499
   0.69225486  0.35059304  0.47727958
   0.95954300  0.68727508  0.46920925
   0.35645930  0.95739933  0.46848731
   0.82572370  0.35307796  0.34653984
Co–organic framework                  
           1
    25.938043    0.223398   -0.036712
    13.162931   22.558528    0.001060
    -0.009727    0.005850    6.837417
   O    C    H    Co   Li
  56  73  18  18   1
Direct configuration=     5
   0.05538020  0.26009087  0.30230180
   0.03411869  0.30508386  0.94499992
   0.10419279  0.26436911  0.71311926
   0.39745606  0.58726458  0.64937906
   0.68671186  0.05928601  0.31088514
   0.66304691  0.03689157  0.95582603
   0.63683899  0.10425027  0.71728228
   0.01674654  0.39658000  0.64179558
   0.25730625  0.68814765  0.31307840
   0.30447490  0.66464744  0.95861012
   0.26372223  0.63838761  0.71939271
   0.58487609  0.02364865  0.64548677
   0.29558193  0.03796169  0.36341306
   0.22703879  0.07919798  0.59860478
   0.63819121  0.36697681  0.70787778
   0.56887101  0.40868994  0.94034733
   0.27231458  0.08235677  0.00320595
   0.66683199  0.29579245  0.37171917
   0.69467041  0.22691489  0.60434024
   0.00491765  0.63073100  0.69905070
   0.03224533  0.56277781  0.93491701
   0.64723098  0.27296600  0.00790980
   0.04036595  0.66590807  0.36542716
   0.08039349  0.69352881  0.60150309
   0.36761794  0.00176172  0.69786567
   0.40791099  0.02912607  0.93385835
   0.08592448  0.64424062  0.00507165
   0.70193687  0.96625715  0.62189317
   0.77089831  0.92539913  0.38641584
   0.37454005  0.63383788  0.29225171
   0.44361931  0.59370715  0.05725567
   0.72596793  0.92034674  0.97891822
   0.33551788  0.70338227  0.62438315
   0.30656265  0.77172450  0.38765785
   0.99035806  0.37717587  0.29100595
   0.96939974  0.44300097  0.05001935
   0.35753797  0.72693043  0.98135133
   0.97182521  0.32041742  0.61522128
   0.91438883  0.32112525  0.36299912
   0.63227487  0.99866164  0.28888793
   0.59213170  0.97094848  0.05260784
   0.90709318  0.37426478  0.95206327
   0.94423445  0.74717676  0.67299638
   0.96892999  0.70229725  0.03300958
   0.90037090  0.74269559  0.26867865
   0.61584392  0.41349208  0.34385805
   0.31107835  0.94284817  0.67172430
   0.33225846  0.96659119  0.03147483
   0.36073593  0.89876957  0.26859386
   0.98342930  0.60834152  0.33872170
   0.75824199  0.29525038  0.67536910
   0.70625316  0.32982796  0.03863904
   0.75197002  0.35359472  0.26883999
   0.41282558  0.98024126  0.33804182
   0.68901347  0.48337723  0.64996141
   0.77595520  0.44448252  0.45888180
   0.10786117  0.21782425  0.22630515
   0.14894272  0.17181037  0.34867396
   0.08610734  0.26401797  0.88545126
   0.12450851  0.21671922  0.02593388
   0.45013184  0.54614874  0.57085015
   0.49170988  0.50032976  0.69193026
   0.67581573  0.11090131  0.23286858
   0.67999358  0.15151912  0.35501627
   0.65299398  0.08745967  0.89264680
   0.66051660  0.12674301  0.03182457
   0.00890131  0.44775709  0.56583757
   0.01549385  0.48714138  0.68759866
   0.21670283  0.67668949  0.23407764
   0.17142196  0.68051490  0.35501303
   0.26406348  0.65441087  0.89510564
   0.21697998  0.66130476  0.03328462
   0.54412431  0.01246010  0.56589892
   0.49863963  0.01663952  0.68648692
   0.24383550  0.07886563  0.42402999
   0.20434994  0.12586936  0.28246130
   0.58624142  0.40838373  0.76657769
   0.54750218  0.45528024  0.62490185
   0.22050199  0.12477917  0.08169265
   0.17972693  0.17081881  0.95942228
   0.67785603  0.24425024  0.43000706
   0.67033384  0.20610682  0.28740464
   0.01546901  0.57970015  0.76013799
   0.00710448  0.54135791  0.61946488
   0.65585317  0.22187220  0.08569517
   0.65090062  0.18140404  0.96397450
   0.08050896  0.67699166  0.42671902
   0.12704490  0.66995911  0.28627308
   0.40780262  0.01282742  0.75894741
   0.45424046  0.00594676  0.61829151
   0.12703980  0.65475568  0.08502397
   0.17258314  0.65074521  0.96437061
   0.75373891  0.92567332  0.56093740