  159  159 1000    2
  0.2408343E+02  0.2605841E-08  0.2551664E-08  0.6759371E-09  0.5000000E-15
  1.000000000000000E-004
  CAR 
 Co–organic framework                  
    774      1    498
