  159  159 1000    2
  0.2018802E+02  0.2561535E-08  0.2357567E-08  0.6857155E-09  0.5000000E-15
  1.000000000000000E-004
  CAR 
 Co–organic framework                  
    774      1    498
