  159  159 1000    2
  0.1955640E+02  0.2396924E-08  0.2398661E-08  0.6801602E-09  0.5000000E-15
  1.000000000000000E-004
  CAR 
 Co–organic framework                  
    774      1    498
