 running on   24 total cores
 distrk:  each k-point on   24 cores,    1 groups
 distr:  one band on    4 cores,    6 groups
 using from now: INCAR     
 vasp.5.4.4.18Apr17-6-g9f103f2a35 (build May 21 2019 18:55:53) complex          
  
 POSCAR found type information on POSCAR  O  C  H  Co Li
 POSCAR found :  5 types and     159 ions
 LDA part: xc-table for Pade appr. of Perdew
 POSCAR found type information on POSCAR  O  C  H  Co Li
 POSCAR found :  5 types and     159 ions
 POSCAR, INCAR and KPOINTS ok, starting setup
 FFT: planning ...
 WAVECAR not read
 WARNING: random wavefunctions but no delay for mixing, default for NELMDL
 entering main loop
       N       E                     dE             d eps       ncg     rms          rms(c)
DAV:   1     0.832571528581E+04    0.83257E+04   -0.32741E+05  1992   0.135E+03
DAV:   2     0.831023286477E+03   -0.74947E+04   -0.67662E+04  2304   0.414E+02
DAV:   3    -0.117423606780E+04   -0.20053E+04   -0.19027E+04  3360   0.212E+02
DAV:   4    -0.133453502592E+04   -0.16030E+03   -0.14935E+03  3156   0.677E+01
DAV:   5    -0.134300068726E+04   -0.84657E+01   -0.77959E+01  3336   0.149E+01    0.156E+02
RMM:   6    -0.180792982213E+04   -0.46493E+03   -0.32800E+03  2612   0.134E+02    0.494E+02
RMM:   7    -0.157902408559E+04    0.22891E+03   -0.24071E+02  2001   0.457E+01    0.299E+02
RMM:   8    -0.121132652536E+04    0.36770E+03   -0.51656E+02  2190   0.471E+01    0.126E+02
RMM:   9    -0.128291771798E+04   -0.71591E+02   -0.12340E+02  2126   0.230E+01    0.153E+02
RMM:  10    -0.130954569580E+04   -0.26628E+02   -0.95471E+01  2185   0.207E+01    0.147E+02
RMM:  11    -0.119419406926E+04    0.11535E+03   -0.67617E+01  2022   0.192E+01    0.108E+02
RMM:  12    -0.124692542317E+04   -0.52731E+02   -0.92558E+01  2024   0.235E+01    0.140E+02
RMM:  13    -0.118131640080E+04    0.65609E+02   -0.96837E+01  2091   0.218E+01    0.121E+02
RMM:  14    -0.115664419087E+04    0.24672E+02   -0.45905E+01  2075   0.161E+01    0.110E+02
RMM:  15    -0.113097239334E+04    0.25672E+02   -0.38052E+01  2064   0.139E+01    0.812E+01
RMM:  16    -0.113359712763E+04   -0.26247E+01   -0.20813E+01  2090   0.102E+01    0.937E+01
RMM:  17    -0.112919817279E+04    0.43990E+01   -0.16745E+01  2126   0.894E+00    0.909E+01
RMM:  18    -0.111460407792E+04    0.14594E+02   -0.86776E+00  2182   0.619E+00    0.796E+01
RMM:  19    -0.110902379966E+04    0.55803E+01   -0.67776E+00  2152   0.498E+00    0.586E+01
RMM:  20    -0.110891815002E+04    0.10565E+00   -0.45506E+00  2099   0.453E+00    0.579E+01
RMM:  21    -0.110730881838E+04    0.16093E+01   -0.43379E+00  2110   0.447E+00    0.433E+01
RMM:  22    -0.110652754997E+04    0.78127E+00   -0.95408E-01  2158   0.213E+00    0.380E+01
RMM:  23    -0.110627464279E+04    0.25291E+00   -0.25683E-01  2173   0.105E+00    0.395E+01
RMM:  24    -0.110628928004E+04   -0.14637E-01   -0.72574E-02  2247   0.520E-01    0.370E+01
RMM:  25    -0.110716052774E+04   -0.87125E+00   -0.18144E-01  2099   0.791E-01    0.411E+01
RMM:  26    -0.110700082488E+04    0.15970E+00   -0.12324E-01  2183   0.665E-01    0.416E+01
RMM:  27    -0.110733545941E+04   -0.33463E+00   -0.47252E-01  2058   0.132E+00    0.371E+01
RMM:  28    -0.110768560873E+04   -0.35015E+00   -0.30376E-01  2110   0.120E+00    0.350E+01
RMM:  29    -0.110725981972E+04    0.42579E+00   -0.24884E-01  2121   0.953E-01    0.358E+01
RMM:  30    -0.110810350780E+04   -0.84369E+00   -0.20027E-01  2078   0.841E-01    0.374E+01
RMM:  31    -0.110969481917E+04   -0.15913E+01   -0.35763E-01  2095   0.109E+00    0.385E+01
RMM:  32    -0.110972383680E+04   -0.29018E-01   -0.24155E-01  2096   0.982E-01    0.350E+01
RMM:  33    -0.111141368905E+04   -0.16899E+01   -0.46691E-01  2078   0.134E+00    0.360E+01
RMM:  34    -0.111390669376E+04   -0.24930E+01   -0.50352E-01  2096   0.125E+00    0.350E+01
RMM:  35    -0.111424357619E+04   -0.33688E+00   -0.13714E-01  2120   0.748E-01    0.332E+01
RMM:  36    -0.111422627117E+04    0.17305E-01   -0.35614E-02  2399   0.317E-01    0.333E+01
RMM:  37    -0.111416695520E+04    0.59316E-01   -0.10359E-02  2128   0.194E-01    0.334E+01
RMM:  38    -0.111419861324E+04   -0.31658E-01   -0.64172E-03  2172   0.156E-01    0.337E+01
RMM:  39    -0.111427928168E+04   -0.80668E-01   -0.39666E-02  2079   0.357E-01    0.335E+01
RMM:  40    -0.111428625958E+04   -0.69779E-02   -0.44290E-02  2137   0.379E-01    0.325E+01
RMM:  41    -0.111436983647E+04   -0.83577E-01   -0.11002E-02  2279   0.196E-01    0.327E+01
RMM:  42    -0.111460566496E+04   -0.23583E+00   -0.12719E-02  2141   0.193E-01    0.330E+01
RMM:  43    -0.111462024813E+04   -0.14583E-01   -0.28716E-03  2148   0.107E-01    0.329E+01
RMM:  44    -0.111458489671E+04    0.35351E-01   -0.10803E-03  2247   0.545E-02    0.329E+01
RMM:  45    -0.111505945345E+04   -0.47456E+00   -0.36228E-02  2054   0.337E-01    0.328E+01
RMM:  46    -0.111640443068E+04   -0.13450E+01   -0.47304E-01  2119   0.118E+00    0.328E+01
RMM:  47    -0.111709764540E+04   -0.69321E+00   -0.23360E-01  2131   0.884E-01    0.334E+01
RMM:  48    -0.111754458281E+04   -0.44694E+00   -0.17501E-01  2227   0.697E-01    0.320E+01
RMM:  49    -0.111915359499E+04   -0.16090E+01   -0.19508E-01  2111   0.743E-01    0.331E+01
RMM:  50    -0.111901543548E+04    0.13816E+00   -0.83347E-02  2113   0.601E-01    0.327E+01
RMM:  51    -0.112410780417E+04   -0.50924E+01   -0.24641E+00  2039   0.329E+00    0.385E+01
RMM:  52    -0.112838021124E+04   -0.42724E+01   -0.16010E+00  2174   0.227E+00    0.416E+01
RMM:  53    -0.112804203903E+04    0.33817E+00   -0.39976E-01  2161   0.129E+00    0.354E+01
RMM:  54    -0.112899550771E+04   -0.95347E+00   -0.33389E-01  2205   0.103E+00    0.343E+01
RMM:  55    -0.112942747339E+04   -0.43197E+00   -0.57640E-01  2041   0.143E+00    0.345E+01
RMM:  56    -0.112985853636E+04   -0.43106E+00   -0.11589E+00  2255   0.188E+00    0.385E+01
RMM:  57    -0.113076595287E+04   -0.90742E+00   -0.78910E-01  2159   0.181E+00    0.387E+01
RMM:  58    -0.113214277156E+04   -0.13768E+01   -0.57677E-01  2211   0.135E+00    0.362E+01
RMM:  59    -0.113513442390E+04   -0.29917E+01   -0.96149E-01  2092   0.169E+00    0.351E+01
RMM:  60    -0.113593161112E+04   -0.79719E+00   -0.10572E+00  2185   0.181E+00    0.267E+01
RMM:  61    -0.114412853633E+04   -0.81969E+01   -0.24685E+00  2147   0.287E+00    0.561E+01
RMM:  62    -0.113917985189E+04    0.49487E+01   -0.15601E+00  2129   0.265E+00    0.349E+01
RMM:  63    -0.114018439386E+04   -0.10045E+01   -0.61938E-01  2041   0.163E+00    0.334E+01
RMM:  64    -0.114072213184E+04   -0.53774E+00   -0.26692E-01  2281   0.913E-01    0.354E+01
RMM:  65    -0.114087543799E+04   -0.15331E+00   -0.68110E-02  2383   0.453E-01    0.346E+01
RMM:  66    -0.113895399820E+04    0.19214E+01   -0.31941E+00  2043   0.349E+00    0.379E+01
RMM:  67    -0.113812954013E+04    0.82446E+00   -0.22686E+00  2083   0.314E+00    0.388E+01
RMM:  68    -0.113865107280E+04   -0.52153E+00   -0.14007E+00  2065   0.238E+00    0.436E+01
RMM:  69    -0.113759363696E+04    0.10574E+01   -0.77741E-01  2147   0.183E+00    0.285E+01
RMM:  70    -0.113696603786E+04    0.62760E+00   -0.33766E-01  2141   0.109E+00    0.285E+01
RMM:  71    -0.114286489015E+04   -0.58989E+01   -0.21526E+00  2025   0.285E+00    0.426E+01
RMM:  72    -0.114012435202E+04    0.27405E+01   -0.68156E-01  2032   0.183E+00    0.319E+01
RMM:  73    -0.114088834499E+04   -0.76399E+00   -0.46758E-01  2128   0.130E+00    0.304E+01
RMM:  74    -0.114025144144E+04    0.63690E+00   -0.39427E-01  2099   0.110E+00    0.305E+01
RMM:  75    -0.113926063234E+04    0.99081E+00   -0.39489E-01  2270   0.977E-01    0.302E+01
RMM:  76    -0.114218250263E+04   -0.29219E+01   -0.61158E+00  2018   0.405E+00    0.504E+01
RMM:  77    -0.113919180498E+04    0.29907E+01   -0.18084E+00  2055   0.287E+00    0.329E+01
RMM:  78    -0.114033184873E+04   -0.11400E+01   -0.65123E-01  2134   0.165E+00    0.346E+01
RMM:  79    -0.113942662493E+04    0.90522E+00   -0.35833E-01  2204   0.114E+00    0.364E+01
RMM:  80    -0.113864985375E+04    0.77677E+00   -0.24647E-01  2202   0.844E-01    0.359E+01
RMM:  81    -0.114229400222E+04   -0.36441E+01   -0.68213E+00  2004   0.428E+00    0.429E+01
RMM:  82    -0.114150663085E+04    0.78737E+00   -0.14172E+00  2084   0.259E+00    0.345E+01
RMM:  83    -0.114140118891E+04    0.10544E+00   -0.41674E-01  2357   0.106E+00    0.332E+01
RMM:  84    -0.114042744115E+04    0.97375E+00   -0.46041E-01  2099   0.131E+00    0.256E+01
RMM:  85    -0.114172073040E+04   -0.12933E+01   -0.47321E-01  2039   0.144E+00    0.220E+01
RMM:  86    -0.114347753389E+04   -0.17568E+01   -0.72108E-01  2177   0.159E+00    0.216E+01
RMM:  87    -0.114457703160E+04   -0.10995E+01   -0.27798E-01  2342   0.943E-01    0.253E+01
RMM:  88    -0.114494591752E+04   -0.36889E+00   -0.19232E-01  2107   0.834E-01    0.250E+01
RMM:  89    -0.114495193675E+04   -0.60192E-02   -0.10559E-01  2231   0.608E-01    0.229E+01
RMM:  90    -0.114514457804E+04   -0.19264E+00   -0.80188E-02  2308   0.481E-01    0.191E+01
RMM:  91    -0.114605654718E+04   -0.91197E+00   -0.86622E-01  2062   0.190E+00    0.302E+01
RMM:  92    -0.114515799517E+04    0.89855E+00   -0.39549E-01  2042   0.140E+00    0.210E+01
RMM:  93    -0.114559513931E+04   -0.43714E+00   -0.13819E-01  2224   0.717E-01    0.194E+01
RMM:  94    -0.114586099467E+04   -0.26586E+00   -0.17921E-01  2033   0.865E-01    0.163E+01
RMM:  95    -0.114657670897E+04   -0.71571E+00   -0.15330E-01  2176   0.738E-01    0.140E+01
RMM:  96    -0.114772907490E+04   -0.11524E+01   -0.47785E-01  2115   0.125E+00    0.186E+01
RMM:  97    -0.114737585862E+04    0.35322E+00   -0.15414E-01  2141   0.805E-01    0.144E+01
RMM:  98    -0.114739503619E+04   -0.19178E-01   -0.61195E-02  2284   0.458E-01    0.137E+01
RMM:  99    -0.114722261532E+04    0.17242E+00   -0.53706E-02  2073   0.442E-01    0.132E+01
RMM: 100    -0.114741926265E+04   -0.19665E+00   -0.58310E-02  2184   0.448E-01    0.145E+01
RMM: 101    -0.114770695280E+04   -0.28769E+00   -0.17677E-01  2019   0.879E-01    0.200E+01
RMM: 102    -0.114758351135E+04    0.12344E+00   -0.67186E-02  2081   0.559E-01    0.202E+01
RMM: 103    -0.114754059424E+04    0.42917E-01   -0.14478E-02  2373   0.240E-01    0.210E+01
RMM: 104    -0.114740739356E+04    0.13320E+00   -0.24834E-02  2107   0.285E-01    0.205E+01
RMM: 105    -0.114779712899E+04   -0.38974E+00   -0.49185E-02  2043   0.472E-01    0.225E+01
RMM: 106    -0.114895919167E+04   -0.11621E+01   -0.37476E-01  2069   0.119E+00    0.246E+01
RMM: 107    -0.114990220283E+04   -0.94301E+00   -0.22649E-01  2071   0.963E-01    0.245E+01
RMM: 108    -0.115088619838E+04   -0.98400E+00   -0.14314E-01  2249   0.659E-01    0.264E+01
RMM: 109    -0.115120147565E+04   -0.31528E+00   -0.63331E-02  2194   0.461E-01    0.268E+01
RMM: 110    -0.115145787268E+04   -0.25640E+00   -0.54043E-02  2224   0.401E-01    0.270E+01
RMM: 111    -0.115177936160E+04   -0.32149E+00   -0.39652E-02  2203   0.366E-01    0.262E+01
RMM: 112    -0.115195309742E+04   -0.17374E+00   -0.61428E-02  2074   0.469E-01    0.260E+01
RMM: 113    -0.115217788133E+04   -0.22478E+00   -0.26408E-02  2224   0.317E-01    0.260E+01
RMM: 114    -0.115216843337E+04    0.94480E-02   -0.70817E-03  2462   0.167E-01    0.260E+01
RMM: 115    -0.115232309425E+04   -0.15466E+00   -0.38634E-02  2075   0.381E-01    0.254E+01
RMM: 116    -0.115121080431E+04    0.11123E+01   -0.20029E-01  2022   0.850E-01    0.247E+01
RMM: 117    -0.115174573602E+04   -0.53493E+00   -0.50464E-02  2082   0.495E-01    0.252E+01
RMM: 118    -0.115184604868E+04   -0.10031E+00   -0.12366E-02  2594   0.183E-01    0.254E+01
RMM: 119    -0.115175838781E+04    0.87661E-01   -0.25770E-03  2181   0.110E-01    0.253E+01
RMM: 120    -0.115128057019E+04    0.47782E+00   -0.28596E-02  2040   0.315E-01
   1 F= -.11593820E+04 E0= -.11593614E+04  d E =-.115938E+04  mag=    22.2142
 curvature:   0.00 expect dE= 0.000E+00 dE for cont linesearch  0.000E+00
 trial: gam= 0.00000 g(F)=  0.741E+00 g(S)=  0.929E+00 ort = 0.000E+00 (trialstep = 0.100E+01)
 search vector abs. value=  0.167E+01
 bond charge predicted
       N       E                     dE             d eps       ncg     rms          rms(c)
DAV:   1    -0.115380094083E+04   -0.20426E+01   -0.36135E+02  2196   0.477E+01    0.362E+01
RMM:   2    -0.127953399105E+04   -0.12573E+03   -0.12496E+02  2043   0.255E+01    0.162E+02
RMM:   3    -0.120509172605E+04    0.74442E+02   -0.69603E+01  2011   0.218E+01    0.105E+02
RMM:   4    -0.116153694528E+04    0.43555E+02   -0.17633E+01  2083   0.103E+01    0.534E+01
RMM:   5    -0.116451539507E+04   -0.29784E+01   -0.10079E+01  2175   0.643E+00    0.682E+01
RMM:   6    -0.116008220670E+04    0.44332E+01   -0.94574E+00  2162   0.625E+00    0.571E+01
RMM:   7    -0.115599216082E+04    0.40900E+01   -0.51247E+00  2187   0.444E+00    0.441E+01
RMM:   8    -0.115492703915E+04    0.10651E+01   -0.36095E+00  2149   0.399E+00    0.389E+01
RMM:   9    -0.115524087172E+04   -0.31383E+00   -0.28735E+00  2221   0.353E+00    0.370E+01
RMM:  10    -0.115337755226E+04    0.18633E+01   -0.12518E+00  2203   0.243E+00    0.197E+01
RMM:  11    -0.115449662525E+04   -0.11191E+01   -0.12355E+00  2145   0.230E+00    0.288E+01
RMM:  12    -0.115427225917E+04    0.22437E+00   -0.65945E-01  2222   0.173E+00    0.208E+01
RMM:  13    -0.115435151164E+04   -0.79252E-01   -0.43017E-01  2127   0.147E+00    0.165E+01
RMM:  14    -0.115443626605E+04   -0.84754E-01   -0.10643E-01  2224   0.687E-01    0.166E+01
RMM:  15    -0.115448070038E+04   -0.44434E-01   -0.33506E-02  2278   0.363E-01    0.189E+01
RMM:  16    -0.115453940802E+04   -0.58708E-01   -0.13123E-02  2195   0.241E-01    0.206E+01
RMM:  17    -0.115456321067E+04   -0.23803E-01   -0.62384E-03  2196   0.161E-01    0.217E+01
RMM:  18    -0.115450626794E+04    0.56943E-01   -0.66198E-02  2098   0.513E-01    0.195E+01
RMM:  19    -0.115425933980E+04    0.24693E+00   -0.26421E-01  2115   0.108E+00    0.166E+01
RMM:  20    -0.115407708314E+04    0.18226E+00   -0.29434E-01  2135   0.119E+00    0.141E+01
RMM:  21    -0.115410090116E+04   -0.23818E-01   -0.17172E-01  2274   0.788E-01    0.150E+01
RMM:  22    -0.115399980208E+04    0.10110E+00   -0.10098E-01  2192   0.670E-01    0.140E+01
RMM:  23    -0.115398694239E+04    0.12860E-01   -0.65760E-02  2225   0.504E-01    0.134E+01
RMM:  24    -0.115395943161E+04    0.27511E-01   -0.16666E-01  2109   0.859E-01    0.134E+01
RMM:  25    -0.115380163032E+04    0.15780E+00   -0.12913E-01  2144   0.797E-01    0.120E+01
RMM:  26    -0.115377005694E+04    0.31573E-01   -0.87526E-02  2173   0.605E-01    0.133E+01
RMM:  27    -0.115356573829E+04    0.20432E+00   -0.16712E-01  2119   0.802E-01    0.137E+01
RMM:  28    -0.115341963448E+04    0.14610E+00   -0.96697E-02  2167   0.599E-01    0.138E+01
RMM:  29    -0.115342607309E+04   -0.64386E-02   -0.30541E-02  2240   0.336E-01    0.140E+01
RMM:  30    -0.115342352717E+04    0.25459E-02   -0.67442E-03  2513   0.115E-01    0.140E+01
RMM:  31    -0.115346314234E+04   -0.39615E-01   -0.10829E-02  2134   0.196E-01    0.140E+01
RMM:  32    -0.115345962197E+04    0.35204E-02   -0.30705E-03  2129   0.121E-01    0.137E+01
RMM:  33    -0.115341465086E+04    0.44971E-01   -0.50103E-03  2009   0.154E-01    0.142E+01
RMM:  34    -0.115343911187E+04   -0.24461E-01   -0.15307E-03  2052   0.877E-02    0.141E+01
RMM:  35    -0.115344112358E+04   -0.20117E-02   -0.67286E-03  2025   0.154E-01    0.133E+01
RMM:  36    -0.115344390789E+04   -0.27843E-02   -0.17174E-03  2074   0.981E-02    0.132E+01
RMM:  37    -0.115356068489E+04   -0.11678E+00   -0.20191E-02  2050   0.263E-01    0.126E+01
RMM:  38    -0.115359031335E+04   -0.29628E-01   -0.53810E-03  2149   0.154E-01    0.125E+01
RMM:  39    -0.115371421284E+04   -0.12390E+00   -0.24023E-02  2125   0.279E-01    0.117E+01
RMM:  40    -0.115387166244E+04   -0.15745E+00   -0.33313E-02  2225   0.328E-01    0.113E+01
RMM:  41    -0.115403819084E+04   -0.16653E+00   -0.69561E-02  2259   0.455E-01    0.102E+01
RMM:  42    -0.115428015531E+04   -0.24196E+00   -0.59654E-02  2306   0.406E-01    0.104E+01
RMM:  43    -0.115443698812E+04   -0.15683E+00   -0.37754E-02  2260   0.354E-01    0.987E+00
RMM:  44    -0.115469517534E+04   -0.25819E+00   -0.57708E-02  2162   0.421E-01    0.979E+00
RMM:  45    -0.115485255088E+04   -0.15738E+00   -0.29175E-02  2240   0.362E-01    0.105E+01
RMM:  46    -0.115490435459E+04   -0.51804E-01   -0.23338E-02  2242   0.285E-01    0.954E+00
RMM:  47    -0.115549663886E+04   -0.59228E+00   -0.36267E-01  2164   0.117E+00    0.189E+01
RMM:  48    -0.115514954895E+04    0.34709E+00   -0.14898E-01  2109   0.935E-01    0.145E+01
RMM:  49    -0.115507543386E+04    0.74115E-01   -0.45298E-02  2186   0.436E-01    0.133E+01
RMM:  50    -0.115497484662E+04    0.10059E+00   -0.61545E-02  2185   0.451E-01    0.122E+01
RMM:  51    -0.115487556572E+04    0.99281E-01   -0.10491E-01  2119   0.600E-01    0.107E+01
RMM:  52    -0.115540171750E+04   -0.52615E+00   -0.23751E-01  2091   0.926E-01    0.115E+01
RMM:  53    -0.115549836977E+04   -0.96652E-01   -0.13685E-01  2061   0.768E-01    0.125E+01
RMM:  54    -0.115540581974E+04    0.92550E-01   -0.32119E-02  2146   0.365E-01    0.125E+01
RMM:  55    -0.115532967867E+04    0.76141E-01   -0.28230E-02  2177   0.316E-01    0.123E+01
RMM:  56    -0.115523481910E+04    0.94860E-01   -0.25648E-02  2227   0.289E-01    0.144E+01
RMM:  57    -0.115542693233E+04   -0.19211E+00   -0.31469E-02  2104   0.353E-01    0.155E+01
RMM:  58    -0.115543015551E+04   -0.32232E-02   -0.82656E-03  2288   0.185E-01    0.159E+01
RMM:  59    -0.115547058588E+04   -0.40430E-01   -0.45149E-03  2460   0.117E-01    0.173E+01
RMM:  60    -0.115546601777E+04    0.45681E-02   -0.24868E-03  2106   0.103E-01    0.176E+01
RMM:  61    -0.115542991746E+04    0.36100E-01   -0.25409E-03  2222   0.929E-02    0.169E+01
RMM:  62    -0.115546109463E+04   -0.31177E-01   -0.11476E-01  2037   0.678E-01    0.164E+01
RMM:  63    -0.115549606433E+04   -0.34970E-01   -0.60011E-02  2090   0.595E-01    0.149E+01
RMM:  64    -0.115548224741E+04    0.13817E-01   -0.21655E-02  2268   0.301E-01    0.132E+01
RMM:  65    -0.115556911089E+04   -0.86863E-01   -0.33017E-02  2114   0.355E-01    0.129E+01
RMM:  66    -0.115562065381E+04   -0.51543E-01   -0.25357E-02  2365   0.292E-01    0.132E+01
RMM:  67    -0.115581380735E+04   -0.19315E+00   -0.20235E-01  2135   0.787E-01    0.127E+01
RMM:  68    -0.115583140177E+04   -0.17594E-01   -0.41992E-02  2093   0.435E-01    0.140E+01
RMM:  69    -0.115570958362E+04    0.12182E+00   -0.35577E-02  2228   0.366E-01    0.155E+01
RMM:  70    -0.115566859808E+04    0.40986E-01   -0.15351E-02  2146   0.263E-01    0.142E+01
RMM:  71    -0.115571568641E+04   -0.47088E-01   -0.17341E-02  2196   0.243E-01    0.146E+01
RMM:  72    -0.115594112751E+04   -0.22544E+00   -0.34414E-01  2025   0.122E+00    0.163E+01
RMM:  73    -0.115605101260E+04   -0.10989E+00   -0.92612E-02  2137   0.667E-01    0.169E+01
RMM:  74    -0.115597005796E+04    0.80955E-01   -0.39998E-02  2358   0.399E-01    0.143E+01
RMM:  75    -0.115599078278E+04   -0.20725E-01   -0.39565E-02  2143   0.399E-01    0.107E+01
RMM:  76    -0.115606405874E+04   -0.73276E-01   -0.29178E-02  2169   0.371E-01    0.101E+01
RMM:  77    -0.115604015092E+04    0.23908E-01   -0.82857E-02  2135   0.594E-01    0.115E+01
RMM:  78    -0.115609558854E+04   -0.55438E-01   -0.34334E-02  2146   0.418E-01    0.100E+01
RMM:  79    -0.115609457089E+04    0.10177E-02   -0.92807E-03  2458   0.174E-01    0.929E+00
RMM:  80    -0.115608465100E+04    0.99199E-02   -0.35619E-03  2197   0.116E-01    0.905E+00
RMM:  81    -0.115607721146E+04    0.74395E-02   -0.19917E-03  2158   0.906E-02    0.907E+00
RMM:  82    -0.115624309585E+04   -0.16588E+00   -0.62629E-02  2165   0.486E-01    0.113E+01
RMM:  83    -0.115600053694E+04    0.24256E+00   -0.62050E-02  2101   0.547E-01    0.746E+00
RMM:  84    -0.115614747898E+04   -0.14694E+00   -0.31314E-02  2095   0.393E-01    0.746E+00
RMM:  85    -0.115620976749E+04   -0.62289E-01   -0.24031E-02  2122   0.320E-01    0.758E+00
RMM:  86    -0.115626594117E+04   -0.56174E-01   -0.12481E-02  2305   0.200E-01    0.791E+00
RMM:  87    -0.115607728660E+04    0.18865E+00   -0.12649E-01  2015   0.704E-01    0.747E+00
RMM:  88    -0.115629285926E+04   -0.21557E+00   -0.55933E-02  2083   0.532E-01    0.798E+00
RMM:  89    -0.115634741413E+04   -0.54555E-01   -0.35676E-02  2247   0.372E-01    0.699E+00
RMM:  90    -0.115643279363E+04   -0.85379E-01   -0.29122E-02  2313   0.319E-01    0.865E+00
RMM:  91    -0.115638870159E+04    0.44092E-01   -0.31099E-02  2112   0.331E-01    0.951E+00
RMM:  92    -0.115639856575E+04   -0.98642E-02   -0.22199E-02  2255   0.281E-01    0.956E+00
RMM:  93    -0.115642354625E+04   -0.24981E-01   -0.10532E-02  2118   0.228E-01    0.957E+00
RMM:  94    -0.115642615238E+04   -0.26061E-02   -0.66005E-03  2415   0.132E-01    0.967E+00
RMM:  95    -0.115636482233E+04    0.61330E-01   -0.18169E-02  2171   0.233E-01    0.917E+00
RMM:  96    -0.115636292374E+04    0.18986E-02   -0.17710E-02  2425   0.215E-01    0.726E+00
RMM:  97    -0.115639759427E+04   -0.34671E-01   -0.18799E-02  2110   0.283E-01    0.758E+00
RMM:  98    -0.115640618746E+04   -0.85932E-02   -0.62612E-03  2228   0.152E-01    0.812E+00
RMM:  99    -0.115640450872E+04    0.16787E-02   -0.34483E-03  2095   0.112E-01    0.844E+00
RMM: 100    -0.115641034725E+04   -0.58385E-02   -0.14581E-03  2205   0.641E-02    0.852E+00
RMM: 101    -0.115643169754E+04   -0.21350E-01   -0.25000E-03  2060   0.901E-02    0.855E+00
RMM: 102    -0.115640328808E+04    0.28409E-01   -0.56193E-03  2202   0.145E-01    0.866E+00
RMM: 103    -0.115643067870E+04   -0.27391E-01   -0.33795E-03  2153   0.113E-01    0.841E+00
RMM: 104    -0.115643500010E+04   -0.43214E-02   -0.15492E-03  2427   0.582E-02    0.827E+00
RMM: 105    -0.115644167995E+04   -0.66799E-02   -0.11967E-03  2299   0.503E-02    0.821E+00
RMM: 106    -0.115644700916E+04   -0.53292E-02   -0.17680E-03  2261   0.660E-02    0.817E+00
RMM: 107    -0.115644105370E+04    0.59555E-02   -0.38205E-03  2106   0.117E-01    0.754E+00
RMM: 108    -0.115643263039E+04    0.84233E-02   -0.38879E-03  2088   0.129E-01    0.682E+00
RMM: 109    -0.115644621859E+04   -0.13588E-01   -0.26595E-03  2257   0.989E-02    0.633E+00
RMM: 110    -0.115643858632E+04    0.76323E-02   -0.37687E-03  2172   0.118E-01    0.590E+00
RMM: 111    -0.115645981440E+04   -0.21228E-01   -0.20701E-03  2359   0.851E-02    0.605E+00
RMM: 112    -0.115643174705E+04    0.28067E-01   -0.68605E-03  2120   0.168E-01    0.594E+00
RMM: 113    -0.115644309575E+04   -0.11349E-01   -0.67560E-03  2044   0.193E-01    0.613E+00
RMM: 114    -0.115644089867E+04    0.21971E-02   -0.15891E-03  2156   0.761E-02    0.646E+00
RMM: 115    -0.115644007335E+04    0.82532E-03   -0.72843E-04  1991   0.551E-02    0.680E+00
RMM: 116    -0.115643529925E+04    0.47741E-02   -0.33311E-04  2012   0.345E-02    0.684E+00
RMM: 117    -0.115648440953E+04   -0.49110E-01   -0.13093E-02  2111   0.225E-01    0.787E+00
RMM: 118    -0.115646814879E+04    0.16261E-01   -0.53474E-03  2178   0.154E-01    0.803E+00
RMM: 119    -0.115644299608E+04    0.25153E-01   -0.16097E-03  2326   0.722E-02    0.790E+00
RMM: 120    -0.115646655592E+04   -0.23560E-01   -0.23587E-03  2164   0.893E-02
   2 F= -.11644236E+04 E0= -.11644023E+04  d E =-.504163E+01  mag=    20.4641
 trial-energy change:   -5.041631  1 .order    0.340404   -1.670355    2.351164
 step:   0.4154(harm=  0.4154)  dis= 0.01952  next Energy= -1159.728902 (dE=-0.347E+00)
 bond charge predicted
       N       E                     dE             d eps       ncg     rms          rms(c)
DAV:   1    -0.115815305777E+04   -0.17101E+01   -0.11991E+02  2184   0.268E+01    0.126E+01
RMM:   2    -0.118406789347E+04   -0.25915E+02   -0.15309E+01  2062   0.931E+00    0.730E+01
RMM:   3    -0.115926553208E+04    0.24802E+02   -0.84898E+00  2109   0.639E+00    0.248E+01
RMM:   4    -0.115866748875E+04    0.59804E+00   -0.28667E+00  2283   0.354E+00    0.271E+01
RMM:   5    -0.115778003908E+04    0.88745E+00   -0.11987E+00  2273   0.233E+00    0.162E+01
RMM:   6    -0.115749703032E+04    0.28301E+00   -0.51793E-01  2220   0.151E+00    0.105E+01
RMM:   7    -0.115755340284E+04   -0.56373E-01   -0.25086E-01  2263   0.100E+00    0.110E+01
RMM:   8    -0.115754743115E+04    0.59717E-02   -0.24135E-01  2225   0.983E-01    0.945E+00
RMM:   9    -0.115760970870E+04   -0.62278E-01   -0.28633E-01  2167   0.110E+00    0.128E+01
RMM:  10    -0.115742774280E+04    0.18197E+00   -0.27893E-01  2214   0.111E+00    0.876E+00
RMM:  11    -0.115726844931E+04    0.15929E+00   -0.20744E-01  2197   0.948E-01    0.667E+00
RMM:  12    -0.115724831223E+04    0.20137E-01   -0.15045E-01  2218   0.774E-01    0.701E+00
RMM:  13    -0.115719203608E+04    0.56276E-01   -0.12065E-01  2189   0.745E-01    0.827E+00
RMM:  14    -0.115710633478E+04    0.85701E-01   -0.33030E-02  2176   0.423E-01    0.543E+00
RMM:  15    -0.115710065293E+04    0.56818E-02   -0.50949E-02  2232   0.445E-01    0.662E+00
RMM:  16    -0.115703937230E+04    0.61281E-01   -0.62232E-02  2224   0.512E-01    0.659E+00
RMM:  17    -0.115701491494E+04    0.24457E-01   -0.25846E-02  2194   0.342E-01    0.659E+00
RMM:  18    -0.115701049979E+04    0.44151E-02   -0.52642E-03  2417   0.129E-01    0.683E+00
RMM:  19    -0.115706428039E+04   -0.53781E-01   -0.28544E-02  2140   0.322E-01    0.569E+00
RMM:  20    -0.115710117495E+04   -0.36895E-01   -0.35526E-02  2167   0.396E-01    0.562E+00
RMM:  21    -0.115712024803E+04   -0.19073E-01   -0.13501E-02  2209   0.244E-01    0.542E+00
RMM:  22    -0.115712084436E+04   -0.59633E-03   -0.62044E-03  2301   0.154E-01    0.405E+00
RMM:  23    -0.115715888495E+04   -0.38041E-01   -0.28246E-02  2147   0.336E-01    0.284E+00
RMM:  24    -0.115723773939E+04   -0.78854E-01   -0.25363E-02  2187   0.329E-01    0.540E+00
RMM:  25    -0.115733650800E+04   -0.98769E-01   -0.22561E-02  2209   0.243E-01    0.427E+00
RMM:  26    -0.115745603382E+04   -0.11953E+00   -0.23715E-02  2307   0.211E-01    0.409E+00
RMM:  27    -0.115750709269E+04   -0.51059E-01   -0.10136E-02  2407   0.156E-01    0.351E+00
RMM:  28    -0.115757355345E+04   -0.66461E-01   -0.85644E-03  2255   0.134E-01    0.352E+00
RMM:  29    -0.115758662002E+04   -0.13067E-01   -0.20427E-03  2333   0.676E-02    0.356E+00
RMM:  30    -0.115759040619E+04   -0.37862E-02   -0.80983E-04  2256   0.561E-02    0.359E+00
RMM:  31    -0.115757743877E+04    0.12967E-01   -0.27856E-03  2083   0.961E-02    0.362E+00
RMM:  32    -0.115754686384E+04    0.30575E-01   -0.29910E-03  2193   0.931E-02    0.340E+00
RMM:  33    -0.115748561810E+04    0.61246E-01   -0.72144E-03  2209   0.119E-01    0.282E+00
RMM:  34    -0.115745975897E+04    0.25859E-01   -0.41482E-03  2383   0.878E-02    0.293E+00
RMM:  35    -0.115748607986E+04   -0.26321E-01   -0.27485E-03  2337   0.785E-02    0.292E+00
RMM:  36    -0.115751928977E+04   -0.33210E-01   -0.11691E-02  2354   0.158E-01    0.105E+01
RMM:  37    -0.115755555293E+04   -0.36263E-01   -0.19046E-02  2066   0.292E-01    0.115E+01
RMM:  38    -0.115755522552E+04    0.32740E-03   -0.50275E-03  2061   0.131E-01    0.124E+01
RMM:  39    -0.115755580461E+04   -0.57908E-03   -0.17491E-03  2226   0.691E-02    0.124E+01
RMM:  40    -0.115756938919E+04   -0.13585E-01   -0.10139E-03  2116   0.512E-02    0.133E+01
RMM:  41    -0.115757564192E+04   -0.62527E-02   -0.69522E-04  1977   0.533E-02    0.132E+01
RMM:  42    -0.115757655344E+04   -0.91152E-03   -0.21511E-04  2085   0.241E-02    0.134E+01
RMM:  43    -0.115756403654E+04    0.12517E-01   -0.20592E-04  1940   0.248E-02    0.128E+01
RMM:  44    -0.115758427971E+04   -0.20243E-01   -0.62216E-04  2086   0.470E-02    0.129E+01
RMM:  45    -0.115759622972E+04   -0.11950E-01   -0.18418E-03  2146   0.707E-02    0.117E+01
RMM:  46    -0.115761971876E+04   -0.23489E-01   -0.16201E-03  2064   0.836E-02    0.120E+01
RMM:  47    -0.115767817561E+04   -0.58457E-01   -0.23428E-03  2183   0.789E-02    0.126E+01
RMM:  48    -0.115766740118E+04    0.10774E-01   -0.12684E-03  2133   0.715E-02    0.129E+01
RMM:  49    -0.115761993189E+04    0.47469E-01   -0.14079E-03  2170   0.640E-02    0.108E+01
RMM:  50    -0.115762749206E+04   -0.75602E-02   -0.17657E-03  2063   0.877E-02    0.108E+01
RMM:  51    -0.115762860554E+04   -0.11135E-02   -0.48043E-04  2139   0.363E-02    0.107E+01
RMM:  52    -0.115764427175E+04   -0.15666E-01   -0.85741E-04  2124   0.524E-02    0.115E+01
RMM:  53    -0.115762731618E+04    0.16956E-01   -0.29905E-04  1970   0.406E-02    0.111E+01
RMM:  54    -0.115763509898E+04   -0.77828E-02   -0.97339E-05  1887   0.202E-02    0.110E+01
RMM:  55    -0.115766290811E+04   -0.27809E-01   -0.34853E-04  1994   0.297E-02    0.112E+01
RMM:  56    -0.115766157032E+04    0.13378E-02   -0.10025E-04  1967   0.224E-02    0.112E+01
RMM:  57    -0.115775125179E+04   -0.89681E-01   -0.57387E-03  2044   0.117E-01    0.159E+01
RMM:  58    -0.115775149783E+04   -0.24604E-03   -0.81146E-03  2037   0.198E-01    0.165E+01
RMM:  59    -0.115775078728E+04    0.71055E-03   -0.19436E-03  2032   0.866E-02    0.175E+01
RMM:  60    -0.115768959171E+04    0.61196E-01   -0.21568E-03  2030   0.892E-02    0.153E+01
RMM:  61    -0.115768599075E+04    0.36010E-02   -0.28280E-03  2147   0.102E-01    0.132E+01
RMM:  62    -0.115772724496E+04   -0.41254E-01   -0.50953E-03  2046   0.140E-01    0.127E+01
RMM:  63    -0.115773386391E+04   -0.66190E-02   -0.20019E-03  2181   0.832E-02    0.123E+01
RMM:  64    -0.115776567463E+04   -0.31811E-01   -0.21811E-03  2007   0.944E-02    0.123E+01
RMM:  65    -0.115776746795E+04   -0.17933E-02   -0.29639E-03  2154   0.904E-02    0.114E+01
RMM:  66    -0.115776843439E+04   -0.96644E-03   -0.20298E-03  2200   0.831E-02    0.110E+01
RMM:  67    -0.115775122824E+04    0.17206E-01   -0.92377E-04  2084   0.565E-02    0.113E+01
RMM:  68    -0.115775899017E+04   -0.77619E-02   -0.32872E-04  2052   0.374E-02    0.113E+01
RMM:  69    -0.115775225910E+04    0.67311E-02   -0.12916E-04  1988   0.235E-02    0.112E+01
RMM:  70    -0.115775229983E+04   -0.40731E-04   -0.39094E-05  1849   0.121E-02    0.112E+01
RMM:  71    -0.115775942496E+04   -0.71251E-02   -0.50466E-05  1935   0.120E-02    0.112E+01
RMM:  72    -0.115780776503E+04   -0.48340E-01   -0.32812E-03  2011   0.900E-02    0.112E+01
RMM:  73    -0.115780795701E+04   -0.19198E-03   -0.67526E-04  2030   0.512E-02    0.112E+01
RMM:  74    -0.115781124951E+04   -0.32925E-02   -0.22947E-04  2280   0.244E-02    0.111E+01
RMM:  75    -0.115778967138E+04    0.21578E-01   -0.26018E-04  2082   0.285E-02    0.108E+01
RMM:  76    -0.115775674979E+04    0.32922E-01   -0.11742E-03  2055   0.650E-02    0.995E+00
RMM:  77    -0.115769838628E+04    0.58364E-01   -0.13364E-02  2102   0.197E-01    0.516E+00
RMM:  78    -0.115777000666E+04   -0.71620E-01   -0.15126E-02  2066   0.252E-01    0.335E+00
RMM:  79    -0.115779714117E+04   -0.27135E-01   -0.72432E-03  2138   0.161E-01    0.326E+00
RMM:  80    -0.115779852452E+04   -0.13833E-02   -0.21952E-03  2358   0.675E-02    0.324E+00
RMM:  81    -0.115779675798E+04    0.17665E-02   -0.28985E-04  2085   0.282E-02    0.322E+00
RMM:  82    -0.115768348132E+04    0.11328E+00   -0.29830E-02  2068   0.297E-01    0.322E+00
RMM:  83    -0.115773849936E+04   -0.55018E-01   -0.13455E-02  2150   0.236E-01    0.317E+00
RMM:  84    -0.115776924943E+04   -0.30750E-01   -0.73453E-03  2461   0.127E-01    0.334E+00
RMM:  85    -0.115777358851E+04   -0.43391E-02   -0.22368E-03  2531   0.632E-02    0.352E+00
RMM:  86    -0.115778264374E+04   -0.90552E-02   -0.16219E-03  2001   0.750E-02    0.314E+00
RMM:  87    -0.115779518211E+04   -0.12538E-01   -0.59346E-03  2093   0.136E-01    0.244E+00
RMM:  88    -0.115782415820E+04   -0.28976E-01   -0.10948E-02  2288   0.167E-01    0.184E+00
RMM:  89    -0.115786977700E+04   -0.45619E-01   -0.11667E-02  2365   0.147E-01    0.205E+00
RMM:  90    -0.115790615237E+04   -0.36375E-01   -0.71658E-03  2412   0.117E-01    0.498E+00
RMM:  91    -0.115790426796E+04    0.18844E-02   -0.41803E-03  2040   0.146E-01    0.315E+00
RMM:  92    -0.115814560573E+04   -0.24134E+00   -0.21787E-02  2085   0.235E-01    0.151E+01
RMM:  93    -0.115819225420E+04   -0.46648E-01   -0.36062E-02  2072   0.352E-01    0.163E+01
RMM:  94    -0.115806652258E+04    0.12573E+00   -0.98745E-03  2065   0.210E-01    0.152E+01
RMM:  95    -0.115803623443E+04    0.30288E-01   -0.64015E-03  2078   0.138E-01    0.154E+01
RMM:  96    -0.115797553774E+04    0.60697E-01   -0.86972E-03  2232   0.149E-01    0.148E+01
RMM:  97    -0.115786625400E+04    0.10928E+00   -0.75074E-03  2193   0.136E-01    0.103E+01
RMM:  98    -0.115789137564E+04   -0.25122E-01   -0.66591E-03  2051   0.166E-01    0.944E+00
RMM:  99    -0.115789487563E+04   -0.35000E-02   -0.21273E-03  2050   0.890E-02    0.871E+00
RMM: 100    -0.115786634708E+04    0.28529E-01   -0.42249E-03  2137   0.979E-02    0.466E+00
RMM: 101    -0.115789802712E+04   -0.31680E-01   -0.11187E-02  2117   0.196E-01    0.301E+00
RMM: 102    -0.115793069267E+04   -0.32666E-01   -0.14462E-02  2200   0.189E-01    0.370E+00
RMM: 103    -0.115793982805E+04   -0.91354E-02   -0.56156E-03  2480   0.914E-02    0.408E+00
RMM: 104    -0.115794446315E+04   -0.46351E-02   -0.76344E-04  2184   0.470E-02    0.371E+00
RMM: 105    -0.115794480883E+04   -0.34567E-03   -0.33017E-04  2202   0.231E-02    0.377E+00
RMM: 106    -0.115794601972E+04   -0.12109E-02   -0.52091E-04  2024   0.364E-02    0.330E+00
RMM: 107    -0.115795722192E+04   -0.11202E-01   -0.69591E-03  2148   0.125E-01    0.234E+00
RMM: 108    -0.115796460251E+04   -0.73806E-02   -0.60282E-03  2347   0.113E-01    0.165E+00
RMM: 109    -0.115797901522E+04   -0.14413E-01   -0.21942E-03  2391   0.738E-02    0.153E+00
RMM: 110    -0.115798452881E+04   -0.55136E-02   -0.77756E-04  2342   0.408E-02    0.139E+00
RMM: 111    -0.115799766459E+04   -0.13136E-01   -0.16785E-03  2054   0.630E-02    0.122E+00
RMM: 112    -0.115800708445E+04   -0.94199E-02   -0.29175E-03  2298   0.817E-02    0.158E+00
RMM: 113    -0.115800934797E+04   -0.22635E-02   -0.15376E-03  2173   0.653E-02    0.232E+00
RMM: 114    -0.115800619559E+04    0.31524E-02   -0.73611E-04  2016   0.593E-02    0.246E+00
RMM: 115    -0.115800697839E+04   -0.78280E-03   -0.29709E-04  2249   0.252E-02    0.289E+00
RMM: 116    -0.115800739160E+04   -0.41321E-03   -0.15833E-04  1927   0.263E-02    0.304E+00
RMM: 117    -0.115801767467E+04   -0.10283E-01   -0.11946E-03  2050   0.515E-02    0.439E+00
RMM: 118    -0.115801408380E+04    0.35909E-02   -0.90132E-04  1998   0.657E-02    0.477E+00
RMM: 119    -0.115801101017E+04    0.30736E-02   -0.30682E-04  2034   0.349E-02    0.498E+00
RMM: 120    -0.115800928828E+04    0.17219E-02   -0.99523E-05  1980   0.197E-02
   3 F= -.11660506E+04 E0= -.11660255E+04  d E =-.666855E+01  mag=    22.0373
 curvature:  -0.21 expect dE=-0.325E+00 dE for cont linesearch -0.146E+00
 ZBRENT: interpolating
 opt :   0.2519  next Energy= -1166.139095 (dE=-0.676E+01)
 bond charge predicted
       N       E                     dE             d eps       ncg     rms          rms(c)
DAV:   1    -0.115819263753E+04   -0.18163E+00   -0.94150E+00  2184   0.758E+00    0.671E+00
RMM:   2    -0.117144325213E+04   -0.13251E+02   -0.24855E+00  2168   0.339E+00    0.592E+01
RMM:   3    -0.115830905453E+04    0.13134E+02   -0.34746E+00  2143   0.367E+00    0.105E+01
RMM:   4    -0.115863890268E+04   -0.32985E+00   -0.59065E-01  2289   0.147E+00    0.152E+01
RMM:   5    -0.115823423691E+04    0.40467E+00   -0.24041E-01  2224   0.991E-01    0.929E+00
RMM:   6    -0.115822132454E+04    0.12912E-01   -0.15506E-01  2239   0.804E-01    0.817E+00
RMM:   7    -0.115817985545E+04    0.41469E-01   -0.65523E-02  2322   0.463E-01    0.842E+00
RMM:   8    -0.115813073425E+04    0.49121E-01   -0.19632E-02  2324   0.255E-01    0.643E+00
RMM:   9    -0.115813222844E+04   -0.14942E-02   -0.11443E-02  2262   0.189E-01    0.629E+00
RMM:  10    -0.115804191074E+04    0.90318E-01   -0.75531E-02  2186   0.482E-01    0.600E+00
RMM:  11    -0.115796259421E+04    0.79317E-01   -0.82697E-02  2206   0.577E-01    0.531E+00
RMM:  12    -0.115793759310E+04    0.25001E-01   -0.35376E-02  2221   0.399E-01    0.573E+00
RMM:  13    -0.115792817153E+04    0.94216E-02   -0.18979E-02  2138   0.307E-01    0.551E+00
RMM:  14    -0.115792350546E+04    0.46661E-02   -0.37491E-03  2277   0.114E-01    0.565E+00
RMM:  15    -0.115794913950E+04   -0.25634E-01   -0.22627E-02  2188   0.291E-01    0.683E+00
RMM:  16    -0.115793596995E+04    0.13170E-01   -0.11216E-02  2232   0.227E-01    0.635E+00
RMM:  17    -0.115793935145E+04   -0.33815E-02   -0.63975E-03  2192   0.167E-01    0.650E+00
RMM:  18    -0.115794326737E+04   -0.39159E-02   -0.99524E-03  2170   0.192E-01    0.689E+00
RMM:  19    -0.115793553934E+04    0.77280E-02   -0.97884E-03  2177   0.197E-01    0.717E+00
RMM:  20    -0.115793282071E+04    0.27186E-02   -0.19450E-02  2187   0.275E-01    0.720E+00
RMM:  21    -0.115796091988E+04   -0.28099E-01   -0.16300E-02  2202   0.252E-01    0.775E+00
RMM:  22    -0.115799700707E+04   -0.36087E-01   -0.79941E-03  2215   0.181E-01    0.842E+00
RMM:  23    -0.115801693537E+04   -0.19928E-01   -0.35807E-03  2307   0.114E-01    0.883E+00
RMM:  24    -0.115801463995E+04    0.22954E-02   -0.12107E-03  2124   0.750E-02    0.880E+00
RMM:  25    -0.115804545635E+04   -0.30816E-01   -0.24005E-03  2179   0.856E-02    0.916E+00
RMM:  26    -0.115807762213E+04   -0.32166E-01   -0.35974E-03  2221   0.105E-01    0.932E+00
RMM:  27    -0.115815441110E+04   -0.76789E-01   -0.66719E-03  2168   0.139E-01    0.100E+01
RMM:  28    -0.115817523645E+04   -0.20825E-01   -0.39662E-03  2301   0.109E-01    0.990E+00
RMM:  29    -0.115817961561E+04   -0.43792E-02   -0.14865E-03  2422   0.647E-02    0.984E+00
RMM:  30    -0.115818536853E+04   -0.57529E-02   -0.77135E-04  2190   0.517E-02    0.993E+00
RMM:  31    -0.115818523660E+04    0.13193E-03   -0.21305E-04  2168   0.210E-02    0.990E+00
RMM:  32    -0.115818916344E+04   -0.39268E-02   -0.41431E-04  2038   0.348E-02    0.979E+00
RMM:  33    -0.115821246332E+04   -0.23300E-01   -0.38179E-03  2036   0.105E-01    0.957E+00
RMM:  34    -0.115823777985E+04   -0.25317E-01   -0.33299E-03  2272   0.922E-02    0.949E+00
RMM:  35    -0.115824866298E+04   -0.10883E-01   -0.13606E-03  2391   0.571E-02    0.949E+00
RMM:  36    -0.115825531960E+04   -0.66566E-02   -0.60076E-04  2110   0.419E-02    0.960E+00
RMM:  37    -0.115825957605E+04   -0.42565E-02   -0.32042E-04  2214   0.272E-02    0.951E+00
RMM:  38    -0.115828291287E+04   -0.23337E-01   -0.38370E-03  2030   0.112E-01    0.931E+00
RMM:  39    -0.115828895802E+04   -0.60452E-02   -0.13631E-03  2164   0.675E-02    0.924E+00
RMM:  40    -0.115830351859E+04   -0.14561E-01   -0.12706E-03  2193   0.613E-02    0.925E+00
RMM:  41    -0.115830436119E+04   -0.84259E-03   -0.27742E-04  2014   0.373E-02    0.936E+00
RMM:  42    -0.115832232996E+04   -0.17969E-01   -0.49097E-04  2034   0.418E-02    0.950E+00
RMM:  43    -0.115832675378E+04   -0.44238E-02   -0.31264E-04  2183   0.290E-02    0.948E+00
RMM:  44    -0.115833049137E+04   -0.37376E-02   -0.21628E-04  2110   0.224E-02    0.945E+00
RMM:  45    -0.115833425465E+04   -0.37633E-02   -0.12925E-04  1942   0.178E-02    0.949E+00
RMM:  46    -0.115833893638E+04   -0.46817E-02   -0.15623E-03  2045   0.743E-02    0.912E+00
RMM:  47    -0.115835560638E+04   -0.16670E-01   -0.42689E-03  2198   0.107E-01    0.889E+00
RMM:  48    -0.115835502939E+04    0.57699E-03   -0.24846E-03  2062   0.102E-01    0.892E+00
RMM:  49    -0.115835040724E+04    0.46221E-02   -0.46845E-03  2112   0.112E-01    0.895E+00
RMM:  50    -0.115835639107E+04   -0.59838E-02   -0.18679E-03  2130   0.845E-02    0.896E+00
RMM:  51    -0.115836513015E+04   -0.87391E-02   -0.35862E-03  2051   0.113E-01    0.883E+00
RMM:  52    -0.115838174507E+04   -0.16615E-01   -0.61327E-03  2130   0.140E-01    0.841E+00
RMM:  53    -0.115839575621E+04   -0.14011E-01   -0.23724E-03  2180   0.897E-02    0.852E+00
RMM:  54    -0.115840603645E+04   -0.10280E-01   -0.78803E-03  2098   0.140E-01    0.851E+00
RMM:  55    -0.115841997537E+04   -0.13939E-01   -0.38529E-03  2086   0.994E-02    0.847E+00
RMM:  56    -0.115842864752E+04   -0.86722E-02   -0.29373E-03  2137   0.104E-01    0.826E+00
RMM:  57    -0.115474803466E+04    0.36806E+01   -0.16202E+00  2019   0.238E+00    0.132E+01
RMM:  58    -0.115491180784E+04   -0.16377E+00   -0.16785E-01  2168   0.863E-01    0.132E+01
RMM:  59    -0.115481989714E+04    0.91911E-01   -0.44272E-02  2703   0.244E-01    0.134E+01
RMM:  60    -0.115489364408E+04   -0.73747E-01   -0.40217E-03  2263   0.898E-02    0.134E+01
RMM:  61    -0.115464798353E+04    0.24566E+00   -0.38016E-03  2226   0.816E-02    0.137E+01
RMM:  62    -0.115476578746E+04   -0.11780E+00   -0.66725E-03  2064   0.154E-01    0.133E+01
RMM:  63    -0.115458732182E+04    0.17847E+00   -0.52628E-03  2063   0.127E-01    0.134E+01
RMM:  64    -0.115459707585E+04   -0.97540E-02   -0.60599E-04  2289   0.401E-02    0.133E+01
RMM:  65    -0.115484212244E+04   -0.24505E+00   -0.31839E-03  2026   0.907E-02    0.132E+01
RMM:  66    -0.115418094015E+04    0.66118E+00   -0.29810E-02  2097   0.263E-01    0.149E+01
RMM:  67    -0.115424685401E+04   -0.65914E-01   -0.12603E-01  2116   0.645E-01    0.158E+01
RMM:  68    -0.115476113501E+04   -0.51428E+00   -0.31914E-02  2165   0.352E-01    0.162E+01
RMM:  69    -0.115455641796E+04    0.20472E+00   -0.24380E-02  2368   0.258E-01    0.165E+01
RMM:  70    -0.115471096878E+04   -0.15455E+00   -0.10543E-02  2454   0.159E-01    0.164E+01
RMM:  71    -0.115496282387E+04   -0.25186E+00   -0.76770E-03  2324   0.145E-01    0.163E+01
RMM:  72    -0.115844728193E+04   -0.34845E+01   -0.21631E+00  2021   0.165E+00    0.191E+01
RMM:  73    -0.115796663278E+04    0.48065E+00   -0.14135E-01  2058   0.855E-01    0.147E+01
RMM:  74    -0.115798425093E+04   -0.17618E-01   -0.44150E-02  2366   0.356E-01    0.145E+01
RMM:  75    -0.115797698701E+04    0.72639E-02   -0.25858E-02  2377   0.238E-01    0.140E+01
RMM:  76    -0.115808126942E+04   -0.10428E+00   -0.15427E-02  2201   0.255E-01    0.137E+01
RMM:  77    -0.115810775679E+04   -0.26487E-01   -0.39746E-02  2258   0.368E-01    0.125E+01
RMM:  78    -0.115693391787E+04    0.11738E+01   -0.35094E-01  2064   0.973E-01    0.115E+01
RMM:  79    -0.115787337646E+04   -0.93946E+00   -0.99614E-02  2126   0.538E-01    0.998E+00
RMM:  80    -0.115716606225E+04    0.70731E+00   -0.85958E-02  2211   0.455E-01    0.850E+00
RMM:  81    -0.115665823711E+04    0.50783E+00   -0.66184E-02  2144   0.385E-01    0.838E+00
RMM:  82    -0.115785092261E+04   -0.11927E+01   -0.20413E-01  2041   0.737E-01    0.879E+00
RMM:  83    -0.115735573380E+04    0.49519E+00   -0.43611E-02  2101   0.378E-01    0.871E+00
RMM:  84    -0.115735422603E+04    0.15078E-02   -0.72829E-03  2466   0.137E-01    0.885E+00
RMM:  85    -0.115766229863E+04   -0.30807E+00   -0.25862E-02  2147   0.263E-01    0.715E+00
RMM:  86    -0.115778952562E+04   -0.12723E+00   -0.11705E-02  2217   0.211E-01    0.659E+00
RMM:  87    -0.115784738253E+04   -0.57857E-01   -0.26076E-02  2238   0.278E-01    0.555E+00
RMM:  88    -0.115793791072E+04   -0.90528E-01   -0.13942E-02  2192   0.230E-01    0.534E+00
RMM:  89    -0.115771326765E+04    0.22464E+00   -0.13612E-02  2255   0.188E-01    0.566E+00
RMM:  90    -0.115771059895E+04    0.26687E-02   -0.20286E-03  2254   0.841E-02    0.566E+00
RMM:  91    -0.115775157698E+04   -0.40978E-01   -0.16646E-03  2301   0.690E-02    0.560E+00
RMM:  92    -0.115829416253E+04   -0.54259E+00   -0.17799E-01  2005   0.639E-01    0.534E+00
RMM:  93    -0.115830777438E+04   -0.13612E-01   -0.27150E-02  2060   0.374E-01    0.371E+00
RMM:  94    -0.115831775614E+04   -0.99818E-02   -0.79195E-03  2507   0.159E-01    0.344E+00
RMM:  95    -0.115832715395E+04   -0.93978E-02   -0.23381E-03  2295   0.876E-02    0.380E+00
RMM:  96    -0.115832492959E+04    0.22244E-02   -0.36386E-03  2279   0.106E-01    0.429E+00
RMM:  97    -0.115838505116E+04   -0.60122E-01   -0.65399E-02  2044   0.489E-01    0.645E+00
RMM:  98    -0.115837108256E+04    0.13969E-01   -0.21465E-02  2063   0.294E-01    0.653E+00
RMM:  99    -0.115835289052E+04    0.18192E-01   -0.74892E-03  2387   0.134E-01    0.621E+00
RMM: 100    -0.115832640274E+04    0.26488E-01   -0.62461E-03  2140   0.136E-01    0.557E+00
RMM: 101    -0.115831540399E+04    0.10999E-01   -0.89903E-03  2124   0.166E-01    0.494E+00
RMM: 102    -0.115831106355E+04    0.43404E-02   -0.95729E-03  2148   0.192E-01    0.392E+00
RMM: 103    -0.115834717664E+04   -0.36113E-01   -0.55217E-03  2221   0.141E-01    0.435E+00
RMM: 104    -0.115835464056E+04   -0.74639E-02   -0.35008E-03  2185   0.955E-02    0.421E+00
RMM: 105    -0.115836734968E+04   -0.12709E-01   -0.40571E-03  2157   0.112E-01    0.315E+00
RMM: 106    -0.115838641739E+04   -0.19068E-01   -0.20279E-03  2224   0.879E-02    0.333E+00
RMM: 107    -0.115838307621E+04    0.33412E-02   -0.31868E-03  2260   0.109E-01    0.297E+00
RMM: 108    -0.115838482912E+04   -0.17529E-02   -0.17294E-03  2200   0.926E-02    0.300E+00
RMM: 109    -0.115837002355E+04    0.14806E-01   -0.11541E-03  2231   0.586E-02    0.312E+00
RMM: 110    -0.115838582210E+04   -0.15799E-01   -0.14765E-03  2047   0.813E-02    0.418E+00
RMM: 111    -0.115837306196E+04    0.12760E-01   -0.17226E-03  2069   0.916E-02    0.361E+00
RMM: 112    -0.115838370324E+04   -0.10641E-01   -0.16403E-03  2174   0.780E-02    0.531E+00
RMM: 113    -0.115838584536E+04   -0.21421E-02   -0.18174E-03  2049   0.899E-02    0.578E+00
RMM: 114    -0.115837693628E+04    0.89091E-02   -0.19201E-03  2213   0.735E-02    0.547E+00
RMM: 115    -0.115835162224E+04    0.25314E-01   -0.11006E-02  2128   0.174E-01    0.304E+00
RMM: 116    -0.115836168188E+04   -0.10060E-01   -0.91528E-03  2168   0.185E-01    0.235E+00
RMM: 117    -0.115834620720E+04    0.15475E-01   -0.23913E-02  2248   0.251E-01    0.290E+00
RMM: 118    -0.115835102947E+04   -0.48223E-02   -0.42953E-03  2142   0.138E-01    0.280E+00
RMM: 119    -0.115835422685E+04   -0.31974E-02   -0.18117E-03  2579   0.532E-02    0.310E+00
RMM: 120    -0.115836360390E+04   -0.93770E-02   -0.15182E-03  2103   0.718E-02
   4 F= -.11664286E+04 E0= -.11664052E+04  d E =-.704659E+01  mag=    23.7247
 curvature:  -0.13 expect dE=-0.834E-01 dE for cont linesearch -0.312E-01
 ZBRENT: interpolating
 opt :   0.0798  next Energy= -1166.499275 (dE=-0.712E+01)
 bond charge predicted
       N       E                     dE             d eps       ncg     rms          rms(c)
DAV:   1    -0.115849432191E+04   -0.14010E+00   -0.10440E+01  2196   0.803E+00    0.388E+00
RMM:   2    -0.115995850835E+04   -0.14642E+01   -0.16282E+00  2045   0.269E+00    0.244E+01
RMM:   3    -0.115849424514E+04    0.14643E+01   -0.63982E-01  2212   0.168E+00    0.607E+00
RMM:   4    -0.115865265670E+04   -0.15841E+00   -0.23560E-01  2301   0.930E-01    0.110E+01
RMM:   5    -0.115848268504E+04    0.16997E+00   -0.12664E-01  2273   0.774E-01    0.429E+00
RMM:   6    -0.115851612115E+04   -0.33436E-01   -0.70263E-02  2228   0.556E-01    0.504E+00
RMM:   7    -0.115851428134E+04    0.18398E-02   -0.38732E-02  2228   0.401E-01    0.432E+00
RMM:   8    -0.115850585779E+04    0.84236E-02   -0.22160E-02  2174   0.326E-01    0.425E+00
RMM:   9    -0.115850473670E+04    0.11211E-02   -0.43979E-03  2244   0.147E-01    0.465E+00
RMM:  10    -0.115851244754E+04   -0.77108E-02   -0.50973E-03  2264   0.134E-01    0.478E+00
RMM:  11    -0.115850601279E+04    0.64347E-02   -0.15277E-02  2171   0.245E-01    0.456E+00
RMM:  12    -0.115850515422E+04    0.85857E-03   -0.78498E-03  2245   0.174E-01    0.442E+00
RMM:  13    -0.115851236758E+04   -0.72134E-02   -0.67383E-03  2243   0.170E-01    0.465E+00
RMM:  14    -0.115851726326E+04   -0.48957E-02   -0.35525E-03  2274   0.124E-01    0.479E+00
RMM:  15    -0.115852459543E+04   -0.73322E-02   -0.44446E-03  2241   0.132E-01    0.500E+00
RMM:  16    -0.115853059302E+04   -0.59976E-02   -0.40452E-03  2274   0.131E-01    0.528E+00
RMM:  17    -0.115853019609E+04    0.39693E-03   -0.21613E-03  2298   0.963E-02    0.517E+00
RMM:  18    -0.115853241022E+04   -0.22141E-02   -0.11043E-03  2344   0.605E-02    0.504E+00
RMM:  19    -0.115853132453E+04    0.10857E-02   -0.82374E-04  2148   0.597E-02    0.464E+00
RMM:  20    -0.115853095826E+04    0.36627E-03   -0.72167E-04  2191   0.548E-02    0.426E+00
RMM:  21    -0.115853238500E+04   -0.14267E-02   -0.37458E-04  2201   0.424E-02    0.401E+00
RMM:  22    -0.115853438952E+04   -0.20045E-02   -0.20737E-04  2189   0.295E-02    0.388E+00
RMM:  23    -0.115853558342E+04   -0.11939E-02   -0.15836E-04  2126   0.254E-02    0.376E+00
RMM:  24    -0.115853740676E+04   -0.18233E-02   -0.11154E-04  2153   0.198E-02    0.364E+00
RMM:  25    -0.115853864057E+04   -0.12338E-02   -0.16964E-04  2294   0.233E-02    0.335E+00
RMM:  26    -0.115853965593E+04   -0.10154E-02   -0.14624E-04  2256   0.244E-02    0.309E+00
RMM:  27    -0.115854116125E+04   -0.15053E-02   -0.10426E-04  2242   0.194E-02    0.291E+00
RMM:  28    -0.115854299549E+04   -0.18342E-02   -0.10200E-04  2149   0.187E-02    0.273E+00
RMM:  29    -0.115854473633E+04   -0.17408E-02   -0.27562E-04  2251   0.289E-02    0.230E+00
RMM:  30    -0.115854666789E+04   -0.19316E-02   -0.43942E-04  2297   0.398E-02    0.173E+00
RMM:  31    -0.115854904963E+04   -0.23817E-02   -0.49170E-04  2319   0.423E-02    0.120E+00
RMM:  32    -0.115855105662E+04   -0.20070E-02   -0.36260E-04  2355   0.368E-02    0.809E-01
RMM:  33    -0.115855233894E+04   -0.12823E-02   -0.22437E-04  2387   0.278E-02    0.543E-01
RMM:  34    -0.115855308218E+04   -0.74324E-03   -0.12240E-04  2233   0.205E-02    0.370E-01
RMM:  35    -0.115855343885E+04   -0.35667E-03   -0.52327E-05  2075   0.132E-02    0.289E-01
RMM:  36    -0.115855368318E+04   -0.24432E-03   -0.26233E-05  1950   0.900E-03    0.225E-01
RMM:  37    -0.115855388053E+04   -0.19735E-03   -0.17737E-05  1852   0.775E-03    0.154E-01
RMM:  38    -0.115855403511E+04   -0.15458E-03   -0.16432E-05  1861   0.755E-03    0.835E-02
RMM:  39    -0.115855413809E+04   -0.10298E-03   -0.11076E-05  1689   0.634E-03    0.399E-02
RMM:  40    -0.115855417817E+04   -0.40081E-04   -0.44094E-06  1413   0.432E-03    0.496E-02
RMM:  41    -0.115855419784E+04   -0.19666E-04   -0.18730E-06  1283   0.280E-03    0.389E-02
RMM:  42    -0.115855422348E+04   -0.25647E-04   -0.16089E-06  1261   0.234E-03    0.285E-02
RMM:  43    -0.115855425444E+04   -0.30958E-04   -0.25643E-06  1344   0.249E-03    0.214E-02
RMM:  44    -0.115855426596E+04   -0.11518E-04   -0.13732E-06  1236   0.211E-03    0.236E-02
RMM:  45    -0.115855427304E+04   -0.70830E-05   -0.10769E-06  1196   0.174E-03    0.175E-02
RMM:  46    -0.115855427774E+04   -0.47020E-05   -0.78576E-07  1134   0.153E-03    0.151E-02
RMM:  47    -0.115855428198E+04   -0.42377E-05   -0.74663E-07  1142   0.136E-03    0.669E-03
RMM:  48    -0.115855428455E+04   -0.25682E-05   -0.49606E-07  1104   0.123E-03    0.366E-03
RMM:  49    -0.115855428542E+04   -0.87121E-06   -0.38514E-07  1072   0.998E-04
   5 F= -.11666442E+04 E0= -.11666181E+04  d E =-.726223E+01  mag=    24.0000
 curvature:  -0.29 expect dE=-0.559E-01 dE for cont linesearch -0.427E-02
 ZBRENT: interpolating
 opt :   0.0374  next Energy= -1166.648405 (dE=-0.727E+01)
 bond charge predicted
       N       E                     dE             d eps       ncg     rms          rms(c)
DAV:   1    -0.115855644516E+04   -0.21606E-02   -0.63704E-01  2232   0.198E+00    0.768E-01
RMM:   2    -0.115860482194E+04   -0.48377E-01   -0.50494E-02  2039   0.525E-01    0.551E+00
RMM:   3    -0.115854228849E+04    0.62533E-01   -0.22232E-02  2292   0.305E-01    0.114E+00
RMM:   4    -0.115856591586E+04   -0.23627E-01   -0.14545E-02  2211   0.259E-01    0.328E+00
RMM:   5    -0.115855238130E+04    0.13535E-01   -0.81413E-03  2249   0.201E-01    0.179E+00
RMM:   6    -0.115855246098E+04   -0.79683E-04   -0.46660E-03  2211   0.146E-01    0.139E+00
RMM:   7    -0.115855342814E+04   -0.96715E-03   -0.32996E-03  2213   0.122E-01    0.129E+00
RMM:   8    -0.115855181528E+04    0.16129E-02   -0.16872E-03  2231   0.923E-02    0.576E-01
RMM:   9    -0.115855275676E+04   -0.94148E-03   -0.11009E-03  2169   0.772E-02    0.810E-01
RMM:  10    -0.115855251993E+04    0.23683E-03   -0.53609E-04  2235   0.512E-02    0.832E-01
RMM:  11    -0.115855192743E+04    0.59250E-03   -0.27088E-04  2253   0.332E-02    0.631E-01
RMM:  12    -0.115855192792E+04   -0.48836E-06   -0.26323E-04  2133   0.348E-02    0.287E-01
RMM:  13    -0.115855228096E+04   -0.35304E-03   -0.26746E-04  2134   0.349E-02    0.353E-01
RMM:  14    -0.115855252112E+04   -0.24017E-03   -0.22095E-04  2072   0.328E-02    0.613E-01
RMM:  15    -0.115855205725E+04    0.46387E-03   -0.13394E-04  1992   0.262E-02    0.416E-01
RMM:  16    -0.115855202992E+04    0.27336E-04   -0.63288E-05  1880   0.160E-02    0.128E-01
RMM:  17    -0.115855224746E+04   -0.21754E-03   -0.62670E-05  1809   0.176E-02    0.130E-01
RMM:  18    -0.115855229995E+04   -0.52488E-04   -0.31716E-05  1771   0.128E-02    0.143E-01
RMM:  19    -0.115855226739E+04    0.32557E-04   -0.12276E-05  1499   0.783E-03    0.872E-02
RMM:  20    -0.115855228564E+04   -0.18251E-04   -0.58217E-06  1392   0.541E-03    0.386E-02
RMM:  21    -0.115855230653E+04   -0.20893E-04   -0.51469E-06  1381   0.540E-03    0.186E-02
RMM:  22    -0.115855232326E+04   -0.16727E-04   -0.20020E-06  1327   0.357E-03    0.120E-02
RMM:  23    -0.115855233576E+04   -0.12495E-04   -0.10179E-06  1222   0.263E-03    0.973E-03
RMM:  24    -0.115855234498E+04   -0.92223E-05   -0.60406E-07  1187   0.196E-03    0.118E-02
RMM:  25    -0.115855235282E+04   -0.78430E-05   -0.36458E-07  1174   0.137E-03    0.157E-02
RMM:  26    -0.115855236195E+04   -0.91269E-05   -0.29634E-07  1181   0.104E-03    0.835E-03
RMM:  27    -0.115855237409E+04   -0.12144E-04   -0.29921E-07  1158   0.897E-04    0.542E-03
RMM:  28    -0.115855238367E+04   -0.95798E-05   -0.29175E-07  1113   0.881E-04    0.968E-03
RMM:  29    -0.115855238965E+04   -0.59735E-05   -0.24837E-07  1036   0.765E-04    0.735E-03
RMM:  30    -0.115855239708E+04   -0.74356E-05   -0.26502E-07   990   0.712E-04    0.163E-03
RMM:  31    -0.115855240263E+04   -0.55442E-05   -0.23834E-07   955   0.714E-04    0.275E-03
RMM:  32    -0.115855240721E+04   -0.45853E-05   -0.23100E-07   969   0.639E-04    0.259E-03
RMM:  33    -0.115855241270E+04   -0.54867E-05   -0.25618E-07   995   0.660E-04    0.659E-04
RMM:  34    -0.115855241642E+04   -0.37225E-05   -0.24206E-07   949   0.649E-04    0.108E-03
RMM:  35    -0.115855241901E+04   -0.25902E-05   -0.22133E-07   959   0.615E-04    0.135E-03
RMM:  36    -0.115855242104E+04   -0.20286E-05   -0.19966E-07   926   0.588E-04    0.453E-04
RMM:  37    -0.115855242211E+04   -0.10674E-05   -0.15511E-07   878   0.546E-04    0.563E-04
RMM:  38    -0.115855242284E+04   -0.73056E-06   -0.12027E-07   818   0.485E-04
   6 F= -.11666485E+04 E0= -.11666224E+04  d E =-.726648E+01  mag=    24.0001
 curvature:  -0.28 expect dE=-0.446E-01 dE for cont linesearch -0.349E-03
 ZBRENT: interpolating
 opt :   0.0215  next Energy= -1166.648883 (dE=-0.727E+01)
 bond charge predicted
       N       E                     dE             d eps       ncg     rms          rms(c)
DAV:   1    -0.115855106047E+04    0.13616E-02   -0.89190E-02  2244   0.742E-01    0.287E-01
RMM:   2    -0.115855911993E+04   -0.80595E-02   -0.70141E-03  2035   0.196E-01    0.288E+00
RMM:   3    -0.115854656118E+04    0.12559E-01   -0.40137E-03  2265   0.132E-01    0.474E-01
RMM:   4    -0.115855201470E+04   -0.54535E-02   -0.25005E-03  2189   0.109E-01    0.125E+00
RMM:   5    -0.115855050700E+04    0.15077E-02   -0.13069E-03  2230   0.826E-02    0.795E-01
RMM:   6    -0.115855057090E+04   -0.63896E-04   -0.80531E-04  2159   0.633E-02    0.757E-01
RMM:   7    -0.115855040283E+04    0.16807E-03   -0.49039E-04  2159   0.470E-02    0.673E-01
RMM:   8    -0.115855008563E+04    0.31719E-03   -0.25715E-04  2155   0.357E-02    0.212E-01
RMM:   9    -0.115855043086E+04   -0.34523E-03   -0.16639E-04  2027   0.302E-02    0.182E-01
RMM:  10    -0.115855058790E+04   -0.15704E-03   -0.10349E-04  2057   0.229E-02    0.335E-01
RMM:  11    -0.115855041841E+04    0.16949E-03   -0.73212E-05  1929   0.189E-02    0.303E-01
RMM:  12    -0.115855039113E+04    0.27282E-04   -0.47049E-05  1824   0.152E-02    0.232E-01
RMM:  13    -0.115855038874E+04    0.23883E-05   -0.29687E-05  1702   0.116E-02    0.112E-01
RMM:  14    -0.115855045020E+04   -0.61459E-04   -0.23637E-05  1630   0.109E-02    0.848E-02
RMM:  15    -0.115855047915E+04   -0.28948E-04   -0.18840E-05  1622   0.107E-02    0.856E-02
RMM:  16    -0.115855046977E+04    0.93760E-05   -0.10551E-05  1459   0.706E-03    0.621E-02
RMM:  17    -0.115855047203E+04   -0.22575E-05   -0.49704E-06  1379   0.548E-03    0.199E-02
RMM:  18    -0.115855048241E+04   -0.10381E-04   -0.23005E-06  1297   0.359E-03    0.363E-02
RMM:  19    -0.115855048042E+04    0.19872E-05   -0.11163E-06  1223   0.278E-03    0.276E-02
RMM:  20    -0.115855048127E+04   -0.84489E-06   -0.46690E-07  1163   0.175E-03
   7 F= -.11666488E+04 E0= -.11666227E+04  d E =-.726682E+01  mag=    24.0001
 curvature:  -0.31 expect dE=-0.483E-01 dE for cont linesearch -0.169E-05
 trial: gam= 0.09397 g(F)=  0.142E+00 g(S)=  0.119E-01 ort =-0.300E-02 (trialstep = 0.804E+00)
 search vector abs. value=  0.168E+00
 bond charge predicted
       N       E                     dE             d eps       ncg     rms          rms(c)
DAV:   1    -0.115845487803E+04    0.95602E-01   -0.39861E+01  1992   0.107E+01    0.304E+00
RMM:   2    -0.115864654688E+04   -0.19167E+00   -0.73805E-01  2112   0.188E+00    0.810E+00
RMM:   3    -0.115872054003E+04   -0.73993E-01   -0.29262E-01  2392   0.109E+00    0.810E+00
RMM:   4    -0.115877965068E+04   -0.59111E-01   -0.16316E-01  2300   0.839E-01    0.948E+00
RMM:   5    -0.115861079433E+04    0.16886E+00   -0.85096E-02  2234   0.633E-01    0.503E+00
RMM:   6    -0.115860106050E+04    0.97338E-02   -0.35593E-02  2195   0.412E-01    0.310E+00
RMM:   7    -0.115860111269E+04   -0.52190E-04   -0.19509E-02  2202   0.286E-01    0.235E+00
RMM:   8    -0.115860173389E+04   -0.62119E-03   -0.10620E-02  2294   0.208E-01    0.225E+00
RMM:   9    -0.115859948951E+04    0.22444E-02   -0.74364E-03  2267   0.178E-01    0.227E+00
RMM:  10    -0.115860112953E+04   -0.16400E-02   -0.99385E-03  2211   0.208E-01    0.174E+00
RMM:  11    -0.115859944224E+04    0.16873E-02   -0.67639E-03  2242   0.181E-01    0.136E+00
RMM:  12    -0.115860037215E+04   -0.92991E-03   -0.40981E-03  2206   0.134E-01    0.157E+00
RMM:  13    -0.115859794978E+04    0.24224E-02   -0.22279E-03  2248   0.100E-01    0.868E-01
RMM:  14    -0.115859904709E+04   -0.10973E-02   -0.20682E-03  2168   0.970E-02    0.861E-01
RMM:  15    -0.115859994835E+04   -0.90127E-03   -0.12183E-03  2177   0.782E-02    0.126E+00
RMM:  16    -0.115859889680E+04    0.10516E-02   -0.73552E-04  2148   0.559E-02    0.111E+00
RMM:  17    -0.115859818083E+04    0.71597E-03   -0.43544E-04  2147   0.373E-02    0.718E-01
RMM:  18    -0.115859861715E+04   -0.43633E-03   -0.38606E-04  2147   0.393E-02    0.434E-01
RMM:  19    -0.115859959214E+04   -0.97498E-03   -0.53521E-04  2065   0.528E-02    0.617E-01
RMM:  20    -0.115859908838E+04    0.50376E-03   -0.21185E-04  2052   0.310E-02    0.214E-01
RMM:  21    -0.115859943974E+04   -0.35136E-03   -0.97875E-05  1930   0.221E-02    0.140E-01
RMM:  22    -0.115859965993E+04   -0.22019E-03   -0.65703E-05  1918   0.187E-02    0.209E-01
RMM:  23    -0.115859980377E+04   -0.14384E-03   -0.45145E-05  1825   0.158E-02    0.161E-01
RMM:  24    -0.115859998590E+04   -0.18213E-03   -0.21127E-05  1747   0.962E-03    0.106E-01
RMM:  25    -0.115860019793E+04   -0.21204E-03   -0.12793E-05  1650   0.729E-03    0.567E-02
RMM:  26    -0.115860041083E+04   -0.21289E-03   -0.11767E-05  1665   0.664E-03    0.323E-02
RMM:  27    -0.115860063245E+04   -0.22163E-03   -0.84503E-06  1625   0.493E-03    0.195E-02
RMM:  28    -0.115860082475E+04   -0.19230E-03   -0.70844E-06  1610   0.405E-03    0.334E-02
RMM:  29    -0.115860094768E+04   -0.12294E-03   -0.47682E-06  1498   0.349E-03    0.221E-02
RMM:  30    -0.115860105343E+04   -0.10575E-03   -0.43638E-06  1478   0.302E-03    0.216E-02
RMM:  31    -0.115860115291E+04   -0.99481E-04   -0.50543E-06  1555   0.312E-03    0.189E-02
RMM:  32    -0.115860120829E+04   -0.55374E-04   -0.34608E-06  1412   0.256E-03    0.882E-03
RMM:  33    -0.115860123818E+04   -0.29893E-04   -0.22074E-06  1281   0.218E-03    0.593E-03
RMM:  34    -0.115860125531E+04   -0.17129E-04   -0.16080E-06  1217   0.183E-03    0.810E-03
RMM:  35    -0.115860126453E+04   -0.92233E-05   -0.13323E-06  1183   0.166E-03    0.534E-03
RMM:  36    -0.115860126749E+04   -0.29621E-05   -0.86624E-07  1123   0.139E-03    0.186E-03
RMM:  37    -0.115860126844E+04   -0.94999E-06   -0.56542E-07  1047   0.112E-03
   8 F= -.11667011E+04 E0= -.11666774E+04  d E =-.522672E-01  mag=    24.0000
 trial-energy change:   -0.052267  1 .order   -0.051682   -0.123602    0.020239
 step:   0.6935(harm=  0.6911)  dis= 0.01768  next Energy= -1166.702490 (dE=-0.537E-01)
 bond charge predicted
       N       E                     dE             d eps       ncg     rms          rms(c)
DAV:   1    -0.115860034567E+04    0.92182E-03   -0.75802E-01  2160   0.147E+00    0.410E-01
RMM:   2    -0.115860321998E+04   -0.28743E-02   -0.11749E-02  2119   0.246E-01    0.986E-01
RMM:   3    -0.115860618655E+04   -0.29666E-02   -0.51742E-03  2384   0.147E-01    0.183E+00
RMM:   4    -0.115860358272E+04    0.26038E-02   -0.32054E-03  2283   0.125E-01    0.123E+00
RMM:   5    -0.115860219711E+04    0.13856E-02   -0.16830E-03  2171   0.964E-02    0.576E-01
RMM:   6    -0.115860257117E+04   -0.37406E-03   -0.63620E-04  2095   0.557E-02    0.325E-01
RMM:   7    -0.115860298814E+04   -0.41697E-03   -0.36977E-04  2123   0.396E-02    0.477E-01
RMM:   8    -0.115860263252E+04    0.35562E-03   -0.25085E-04  2170   0.356E-02    0.173E-01
RMM:   9    -0.115860276272E+04   -0.13020E-03   -0.17722E-04  2099   0.283E-02    0.197E-01
RMM:  10    -0.115860285607E+04   -0.93349E-04   -0.13772E-04  2074   0.246E-02    0.299E-01
RMM:  11    -0.115860269259E+04    0.16348E-03   -0.11131E-04  1995   0.229E-02    0.132E-01
RMM:  12    -0.115860275163E+04   -0.59043E-04   -0.62143E-05  1846   0.181E-02    0.953E-02
RMM:  13    -0.115860274804E+04    0.35956E-05   -0.20707E-05  1618   0.102E-02    0.535E-02
RMM:  14    -0.115860276562E+04   -0.17587E-04   -0.11755E-05  1514   0.783E-03    0.553E-02
RMM:  15    -0.115860277671E+04   -0.11090E-04   -0.92587E-06  1447   0.672E-03    0.418E-02
RMM:  16    -0.115860279033E+04   -0.13613E-04   -0.45329E-06  1419   0.536E-03    0.236E-02
RMM:  17    -0.115860280068E+04   -0.10354E-04   -0.32709E-06  1319   0.380E-03    0.316E-02
RMM:  18    -0.115860280253E+04   -0.18489E-05   -0.20137E-06  1234   0.314E-03    0.185E-02
RMM:  19    -0.115860280975E+04   -0.72204E-05   -0.78758E-07  1178   0.204E-03    0.123E-02
RMM:  20    -0.115860281572E+04   -0.59734E-05   -0.62178E-07  1129   0.188E-03    0.151E-02
RMM:  21    -0.115860282488E+04   -0.91521E-05   -0.43126E-07  1117   0.143E-03    0.158E-02
RMM:  22    -0.115860283045E+04   -0.55785E-05   -0.32499E-07  1070   0.130E-03    0.111E-02
RMM:  23    -0.115860283838E+04   -0.79270E-05   -0.23894E-07  1067   0.100E-03    0.562E-03
RMM:  24    -0.115860284778E+04   -0.93945E-05   -0.21186E-07  1077   0.884E-04    0.496E-03
RMM:  25    -0.115860285810E+04   -0.10322E-04   -0.23799E-07  1080   0.766E-04    0.370E-03
RMM:  26    -0.115860286735E+04   -0.92528E-05   -0.24234E-07  1028   0.783E-04    0.461E-03
RMM:  27    -0.115860287457E+04   -0.72202E-05   -0.26904E-07  1033   0.735E-04    0.162E-03
RMM:  28    -0.115860287888E+04   -0.43047E-05   -0.22565E-07   989   0.722E-04    0.230E-03
RMM:  29    -0.115860288201E+04   -0.31330E-05   -0.20686E-07   958   0.624E-04    0.135E-03
RMM:  30    -0.115860288516E+04   -0.31553E-05   -0.21658E-07   981   0.633E-04    0.178E-03
RMM:  31    -0.115860288645E+04   -0.12878E-05   -0.17716E-07   926   0.596E-04    0.688E-04
RMM:  32    -0.115860288712E+04   -0.66986E-06   -0.13751E-07   853   0.521E-04
   9 F= -.11667025E+04 E0= -.11666785E+04  d E =-.536668E-01  mag=    24.0000
 curvature:  -0.38 expect dE=-0.725E-01 dE for cont linesearch -0.298E-08
 trial: gam= 1.18994 g(F)=  0.187E+00 g(S)=  0.477E-02 ort = 0.364E-04 (trialstep = 0.306E+00)
 search vector abs. value=  0.430E+00
 bond charge predicted
       N       E                     dE             d eps       ncg     rms          rms(c)
DAV:   1    -0.115858983408E+04    0.13052E-01   -0.14657E+01  1992   0.572E+00    0.191E+00
RMM:   2    -0.115865674671E+04   -0.66913E-01   -0.20799E-01  2190   0.989E-01    0.484E+00
RMM:   3    -0.115871908204E+04   -0.62335E-01   -0.10345E-01  2383   0.641E-01    0.692E+00
RMM:   4    -0.115868626532E+04    0.32817E-01   -0.69442E-02  2283   0.543E-01    0.563E+00
RMM:   5    -0.115863143764E+04    0.54828E-01   -0.32123E-02  2191   0.383E-01    0.140E+00
RMM:   6    -0.115864231853E+04   -0.10881E-01   -0.11572E-02  2227   0.224E-01    0.197E+00
RMM:   7    -0.115864417680E+04   -0.18583E-02   -0.72606E-03  2240   0.172E-01    0.210E+00
RMM:   8    -0.115864026572E+04    0.39111E-02   -0.51461E-03  2210   0.159E-01    0.155E+00
RMM:   9    -0.115864102523E+04   -0.75951E-03   -0.25194E-03  2210   0.105E-01    0.164E+00
RMM:  10    -0.115863884143E+04    0.21838E-02   -0.17044E-03  2230   0.850E-02    0.721E-01
RMM:  11    -0.115864044577E+04   -0.16043E-02   -0.20580E-03  2167   0.971E-02    0.656E-01
RMM:  12    -0.115864272260E+04   -0.22768E-02   -0.12784E-03  2187   0.772E-02    0.159E+00
RMM:  13    -0.115864080569E+04    0.19169E-02   -0.10061E-03  2085   0.689E-02    0.145E+00
RMM:  14    -0.115863925705E+04    0.15486E-02   -0.45551E-04  2155   0.421E-02    0.792E-01
RMM:  15    -0.115863984665E+04   -0.58960E-03   -0.47735E-04  2125   0.446E-02    0.288E-01
RMM:  16    -0.115864083304E+04   -0.98639E-03   -0.37113E-04  2116   0.447E-02    0.477E-01
RMM:  17    -0.115864083388E+04   -0.83436E-06   -0.23468E-04  2095   0.340E-02    0.385E-01
RMM:  18    -0.115864072984E+04    0.10404E-03   -0.10095E-04  1986   0.190E-02    0.203E-01
RMM:  19    -0.115864086269E+04   -0.13285E-03   -0.48567E-05  1827   0.162E-02    0.118E-01
RMM:  20    -0.115864094681E+04   -0.84118E-04   -0.28438E-05  1725   0.116E-02    0.809E-02
RMM:  21    -0.115864100714E+04   -0.60330E-04   -0.20689E-05  1623   0.100E-02    0.528E-02
RMM:  22    -0.115864107213E+04   -0.64991E-04   -0.14064E-05  1556   0.827E-03    0.556E-02
RMM:  23    -0.115864111599E+04   -0.43859E-04   -0.11373E-05  1486   0.713E-03    0.447E-02
RMM:  24    -0.115864115975E+04   -0.43760E-04   -0.49476E-06  1417   0.523E-03    0.308E-02
RMM:  25    -0.115864120395E+04   -0.44205E-04   -0.21748E-06  1329   0.325E-03    0.174E-02
RMM:  26    -0.115864125948E+04   -0.55533E-04   -0.17938E-06  1290   0.253E-03    0.122E-02
RMM:  27    -0.115864132553E+04   -0.66044E-04   -0.19012E-06  1291   0.237E-03    0.156E-02
RMM:  28    -0.115864137438E+04   -0.48854E-04   -0.15845E-06  1232   0.216E-03    0.160E-02
RMM:  29    -0.115864140596E+04   -0.31577E-04   -0.12244E-06  1180   0.171E-03    0.770E-03
RMM:  30    -0.115864143566E+04   -0.29698E-04   -0.11312E-06  1149   0.160E-03    0.922E-03
RMM:  31    -0.115864147134E+04   -0.35680E-04   -0.17255E-06  1262   0.171E-03    0.106E-02
RMM:  32    -0.115864149175E+04   -0.20415E-04   -0.13479E-06  1192   0.162E-03    0.832E-03
RMM:  33    -0.115864150207E+04   -0.10315E-04   -0.96108E-07  1123   0.137E-03    0.355E-03
RMM:  34    -0.115864151073E+04   -0.86647E-05   -0.85937E-07  1110   0.131E-03    0.637E-03
RMM:  35    -0.115864151446E+04   -0.37246E-05   -0.66561E-07  1107   0.114E-03    0.246E-03
RMM:  36    -0.115864151603E+04   -0.15693E-05   -0.44564E-07  1017   0.938E-04    0.728E-04
RMM:  37    -0.115864151699E+04   -0.96836E-06   -0.32947E-07   972   0.789E-04
  10 F= -.11667450E+04 E0= -.11667217E+04  d E =-.425531E-01  mag=    24.0000
 trial-energy change:   -0.042553  1 .order   -0.042565   -0.058691   -0.026440
 step:   0.5565(harm=  0.5565)  dis= 0.02469  next Energy= -1166.755900 (dE=-0.534E-01)
 bond charge predicted
       N       E                     dE             d eps       ncg     rms          rms(c)
DAV:   1    -0.115861479761E+04    0.26718E-01   -0.98513E+00  2070   0.468E+00    0.156E+00
RMM:   2    -0.115865978188E+04   -0.44984E-01   -0.13439E-01  2189   0.804E-01    0.402E+00
RMM:   3    -0.115869955596E+04   -0.39774E-01   -0.67922E-02  2376   0.528E-01    0.587E+00
RMM:   4    -0.115868050784E+04    0.19048E-01   -0.49257E-02  2269   0.456E-01    0.480E+00
RMM:   5    -0.115864374504E+04    0.36763E-01   -0.24785E-02  2203   0.331E-01    0.159E+00
RMM:   6    -0.115864719757E+04   -0.34525E-02   -0.74644E-03  2216   0.183E-01    0.130E+00
RMM:   7    -0.115865055081E+04   -0.33532E-02   -0.52501E-03  2200   0.144E-01    0.149E+00
RMM:   8    -0.115864777091E+04    0.27799E-02   -0.30677E-03  2234   0.122E-01    0.950E-01
RMM:   9    -0.115864797919E+04   -0.20827E-03   -0.16378E-03  2224   0.849E-02    0.808E-01
RMM:  10    -0.115864833549E+04   -0.35631E-03   -0.13895E-03  2187   0.779E-02    0.653E-01
RMM:  11    -0.115864847277E+04   -0.13728E-03   -0.11425E-03  2181   0.741E-02    0.652E-01
RMM:  12    -0.115864881628E+04   -0.34351E-03   -0.68359E-04  2167   0.543E-02    0.949E-01
RMM:  13    -0.115864798174E+04    0.83454E-03   -0.38750E-04  2117   0.432E-02    0.652E-01
RMM:  14    -0.115864794775E+04    0.33985E-04   -0.20873E-04  2141   0.298E-02    0.242E-01
RMM:  15    -0.115864845670E+04   -0.50895E-03   -0.28222E-04  2052   0.354E-02    0.392E-01
RMM:  16    -0.115864852985E+04   -0.73152E-04   -0.14805E-04  2039   0.281E-02    0.456E-01
RMM:  17    -0.115864832356E+04    0.20629E-03   -0.77628E-05  1924   0.179E-02    0.280E-01
RMM:  18    -0.115864837136E+04   -0.47796E-04   -0.40981E-05  1784   0.136E-02    0.703E-02
RMM:  19    -0.115864852423E+04   -0.15287E-03   -0.26883E-05  1738   0.124E-02    0.443E-02
RMM:  20    -0.115864857532E+04   -0.51092E-04   -0.13924E-05  1560   0.842E-03    0.470E-02
RMM:  21    -0.115864860883E+04   -0.33502E-04   -0.74379E-06  1463   0.646E-03    0.248E-02
RMM:  22    -0.115864866077E+04   -0.51942E-04   -0.42093E-06  1405   0.472E-03    0.302E-02
RMM:  23    -0.115864868616E+04   -0.25391E-04   -0.36822E-06  1366   0.423E-03    0.321E-02
RMM:  24    -0.115864871498E+04   -0.28817E-04   -0.21232E-06  1321   0.345E-03    0.243E-02
RMM:  25    -0.115864875414E+04   -0.39168E-04   -0.11625E-06  1235   0.216E-03    0.952E-03
RMM:  26    -0.115864880270E+04   -0.48557E-04   -0.12021E-06  1206   0.191E-03    0.638E-03
RMM:  27    -0.115864884669E+04   -0.43986E-04   -0.12310E-06  1221   0.169E-03    0.649E-03
RMM:  28    -0.115864887483E+04   -0.28145E-04   -0.91393E-07  1138   0.153E-03    0.464E-03
RMM:  29    -0.115864889737E+04   -0.22539E-04   -0.81768E-07  1117   0.132E-03    0.758E-03
RMM:  30    -0.115864892529E+04   -0.27923E-04   -0.11066E-06  1191   0.137E-03    0.571E-03
RMM:  31    -0.115864894511E+04   -0.19812E-04   -0.10625E-06  1143   0.139E-03    0.209E-03
RMM:  32    -0.115864895347E+04   -0.83615E-05   -0.76943E-07  1085   0.121E-03    0.195E-03
RMM:  33    -0.115864896073E+04   -0.72635E-05   -0.66512E-07  1079   0.106E-03    0.247E-03
RMM:  34    -0.115864896604E+04   -0.53097E-05   -0.58271E-07  1077   0.102E-03    0.130E-03
RMM:  35    -0.115864896829E+04   -0.22455E-05   -0.44903E-07  1022   0.900E-04    0.716E-04
RMM:  36    -0.115864896920E+04   -0.91705E-06   -0.31740E-07   955   0.773E-04
  11 F= -.11667558E+04 E0= -.11667329E+04  d E =-.532769E-01  mag=    24.0000
 curvature:  -0.62 expect dE=-0.492E-01 dE for cont linesearch -0.839E-06
 trial: gam= 0.40815 g(F)=  0.783E-01 g(S)=  0.660E-03 ort =-0.761E-03 (trialstep = 0.356E+00)
 search vector abs. value=  0.150E+00
 bond charge predicted
       N       E                     dE             d eps       ncg     rms          rms(c)
DAV:   1    -0.115864727723E+04    0.16911E-02   -0.59593E+00  2076   0.435E+00    0.115E+00
RMM:   2    -0.115867909199E+04   -0.31815E-01   -0.10303E-01  2334   0.724E-01    0.372E+00
RMM:   3    -0.115867611013E+04    0.29819E-02   -0.36259E-02  2410   0.400E-01    0.331E+00
RMM:   4    -0.115869458837E+04   -0.18478E-01   -0.24820E-02  2316   0.336E-01    0.479E+00
RMM:   5    -0.115865810574E+04    0.36483E-01   -0.16880E-02  2226   0.273E-01    0.142E+00
RMM:   6    -0.115866355718E+04   -0.54514E-02   -0.60305E-03  2174   0.166E-01    0.863E-01
RMM:   7    -0.115866631563E+04   -0.27584E-02   -0.33450E-03  2198   0.117E-01    0.111E+00
RMM:   8    -0.115866495640E+04    0.13592E-02   -0.18492E-03  2285   0.937E-02    0.663E-01
RMM:   9    -0.115866495877E+04   -0.23704E-05   -0.11520E-03  2252   0.731E-02    0.499E-01
RMM:  10    -0.115866567535E+04   -0.71658E-03   -0.10463E-03  2190   0.677E-02    0.617E-01
RMM:  11    -0.115866500307E+04    0.67228E-03   -0.66271E-04  2219   0.581E-02    0.236E-01
RMM:  12    -0.115866531777E+04   -0.31470E-03   -0.41434E-04  2123   0.422E-02    0.319E-01
RMM:  13    -0.115866517903E+04    0.13874E-03   -0.21947E-04  2090   0.335E-02    0.118E-01
RMM:  14    -0.115866529819E+04   -0.11916E-03   -0.12168E-04  1994   0.238E-02    0.170E-01
RMM:  15    -0.115866526968E+04    0.28510E-04   -0.77218E-05  1872   0.191E-02    0.104E-01
RMM:  16    -0.115866530603E+04   -0.36350E-04   -0.30682E-05  1725   0.128E-02    0.825E-02
RMM:  17    -0.115866531786E+04   -0.11827E-04   -0.16454E-05  1522   0.874E-03    0.530E-02
RMM:  18    -0.115866534356E+04   -0.25704E-04   -0.79084E-06  1487   0.677E-03    0.537E-02
RMM:  19    -0.115866536218E+04   -0.18616E-04   -0.68503E-06  1417   0.587E-03    0.540E-02
RMM:  20    -0.115866538514E+04   -0.22964E-04   -0.39682E-06  1390   0.471E-03    0.253E-02
RMM:  21    -0.115866541288E+04   -0.27742E-04   -0.37623E-06  1388   0.422E-03    0.408E-02
RMM:  22    -0.115866543505E+04   -0.22168E-04   -0.27041E-06  1344   0.380E-03    0.496E-02
RMM:  23    -0.115866544605E+04   -0.10998E-04   -0.12889E-06  1250   0.269E-03    0.323E-02
RMM:  24    -0.115866546538E+04   -0.19336E-04   -0.83458E-07  1188   0.186E-03    0.110E-02
RMM:  25    -0.115866549864E+04   -0.33257E-04   -0.12216E-06  1229   0.200E-03    0.148E-02
RMM:  26    -0.115866552635E+04   -0.27711E-04   -0.10728E-06  1220   0.167E-03    0.698E-03
RMM:  27    -0.115866554736E+04   -0.21007E-04   -0.83913E-07  1146   0.148E-03    0.418E-03
RMM:  28    -0.115866556311E+04   -0.15752E-04   -0.77844E-07  1108   0.126E-03    0.318E-03
RMM:  29    -0.115866557819E+04   -0.15075E-04   -0.79611E-07  1123   0.121E-03    0.430E-03
RMM:  30    -0.115866558991E+04   -0.11720E-04   -0.79437E-07  1119   0.118E-03    0.425E-03
RMM:  31    -0.115866559747E+04   -0.75606E-05   -0.70482E-07  1101   0.114E-03    0.500E-03
RMM:  32    -0.115866560114E+04   -0.36684E-05   -0.50941E-07  1049   0.976E-04    0.176E-03
RMM:  33    -0.115866560476E+04   -0.36269E-05   -0.45569E-07  1027   0.885E-04    0.311E-03
RMM:  34    -0.115866560685E+04   -0.20880E-05   -0.36746E-07  1010   0.832E-04    0.194E-03
RMM:  35    -0.115866560794E+04   -0.10905E-05   -0.28557E-07   954   0.710E-04    0.483E-04
RMM:  36    -0.115866560846E+04   -0.51667E-06   -0.20600E-07   907   0.637E-04
  12 F= -.11667752E+04 E0= -.11667527E+04  d E =-.194235E-01  mag=    24.0000
 trial-energy change:   -0.019424  1 .order   -0.019448   -0.027998   -0.010898
 step:   0.5828(harm=  0.5828)  dis= 0.01235  next Energy= -1166.778694 (dE=-0.229E-01)
 bond charge predicted
       N       E                     dE             d eps       ncg     rms          rms(c)
DAV:   1    -0.115865991232E+04    0.56956E-02   -0.24208E+00  2088   0.278E+00    0.735E-01
RMM:   2    -0.115867270418E+04   -0.12792E-01   -0.41191E-02  2332   0.461E-01    0.239E+00
RMM:   3    -0.115867133554E+04    0.13686E-02   -0.14697E-02  2400   0.258E-01    0.226E+00
RMM:   4    -0.115867910979E+04   -0.77742E-02   -0.10468E-02  2309   0.222E-01    0.333E+00
RMM:   5    -0.115866317284E+04    0.15937E-01   -0.74721E-03  2204   0.185E-01    0.993E-01
RMM:   6    -0.115866613376E+04   -0.29609E-02   -0.28101E-03  2142   0.115E-01    0.419E-01
RMM:   7    -0.115866789168E+04   -0.17579E-02   -0.14413E-03  2183   0.762E-02    0.845E-01
RMM:   8    -0.115866689453E+04    0.99716E-03   -0.78911E-04  2275   0.611E-02    0.458E-01
RMM:   9    -0.115866692479E+04   -0.30267E-04   -0.51145E-04  2216   0.497E-02    0.294E-01
RMM:  10    -0.115866723271E+04   -0.30792E-03   -0.41846E-04  2178   0.434E-02    0.353E-01
RMM:  11    -0.115866700875E+04    0.22396E-03   -0.24756E-04  2167   0.356E-02    0.137E-01
RMM:  12    -0.115866712535E+04   -0.11660E-03   -0.13969E-04  2006   0.250E-02    0.180E-01
RMM:  13    -0.115866708140E+04    0.43956E-04   -0.70684E-05  1865   0.189E-02    0.627E-02
RMM:  14    -0.115866713366E+04   -0.52257E-04   -0.38521E-05  1765   0.135E-02    0.965E-02
RMM:  15    -0.115866712896E+04    0.46943E-05   -0.24657E-05  1596   0.111E-02    0.467E-02
RMM:  16    -0.115866714885E+04   -0.19889E-04   -0.10786E-05  1518   0.790E-03    0.389E-02
RMM:  17    -0.115866715696E+04   -0.81113E-05   -0.57528E-06  1412   0.542E-03    0.347E-02
RMM:  18    -0.115866716481E+04   -0.78451E-05   -0.26132E-06  1353   0.407E-03    0.284E-02
RMM:  19    -0.115866717428E+04   -0.94732E-05   -0.20591E-06  1301   0.315E-03    0.256E-02
RMM:  20    -0.115866718761E+04   -0.13330E-04   -0.14884E-06  1263   0.291E-03    0.134E-02
RMM:  21    -0.115866719929E+04   -0.11679E-04   -0.12370E-06  1272   0.243E-03    0.199E-02
RMM:  22    -0.115866720981E+04   -0.10519E-04   -0.78522E-07  1190   0.210E-03    0.165E-02
RMM:  23    -0.115866721843E+04   -0.86227E-05   -0.43337E-07  1130   0.141E-03    0.915E-03
RMM:  24    -0.115866723167E+04   -0.13235E-04   -0.42237E-07  1122   0.118E-03    0.869E-03
RMM:  25    -0.115866724573E+04   -0.14063E-04   -0.48614E-07  1142   0.115E-03    0.711E-03
RMM:  26    -0.115866725559E+04   -0.98662E-05   -0.39322E-07  1082   0.993E-04    0.347E-03
RMM:  27    -0.115866726313E+04   -0.75376E-05   -0.34716E-07  1038   0.856E-04    0.246E-03
RMM:  28    -0.115866727052E+04   -0.73890E-05   -0.36186E-07  1040   0.819E-04    0.361E-03
RMM:  29    -0.115866727668E+04   -0.61553E-05   -0.36115E-07  1030   0.818E-04    0.277E-03
RMM:  30    -0.115866728058E+04   -0.39009E-05   -0.30960E-07  1006   0.759E-04    0.296E-03
RMM:  31    -0.115866728353E+04   -0.29560E-05   -0.28149E-07   984   0.718E-04    0.300E-03
RMM:  32    -0.115866728573E+04   -0.21921E-05   -0.24246E-07   963   0.660E-04    0.111E-03
RMM:  33    -0.115866728745E+04   -0.17287E-05   -0.22044E-07   956   0.633E-04    0.186E-03
RMM:  34    -0.115866728810E+04   -0.64154E-06   -0.15927E-07   858   0.572E-04
  13 F= -.11667787E+04 E0= -.11667565E+04  d E =-.228814E-01  mag=    24.0000
 curvature:  -0.56 expect dE=-0.371E-01 dE for cont linesearch -0.229E-09
 trial: gam= 0.83432 g(F)=  0.661E-01 g(S)=  0.708E-03 ort =-0.786E-05 (trialstep = 0.352E+00)
 search vector abs. value=  0.171E+00
 bond charge predicted
       N       E                     dE             d eps       ncg     rms          rms(c)
DAV:   1    -0.115866305616E+04    0.42313E-02   -0.61561E+00  2004   0.481E+00    0.101E+00
RMM:   2    -0.115869464471E+04   -0.31589E-01   -0.11837E-01  2373   0.771E-01    0.384E+00
RMM:   3    -0.115868775132E+04    0.68934E-02   -0.32167E-02  2414   0.373E-01    0.339E+00
[...]
RMM:   8    -0.116082361786E+04    0.78925E-03   -0.86099E-04  2200   0.659E-02    0.328E-01
RMM:   9    -0.116082400402E+04   -0.38616E-03   -0.90701E-04  2198   0.670E-02    0.383E-01
RMM:  10    -0.116082408157E+04   -0.77553E-04   -0.78954E-04  2219   0.586E-02    0.421E-01
RMM:  11    -0.116082388584E+04    0.19573E-03   -0.54003E-04  2168   0.495E-02    0.339E-01
RMM:  12    -0.116082370509E+04    0.18075E-03   -0.25242E-04  2110   0.347E-02    0.191E-01
RMM:  13    -0.116082374860E+04   -0.43512E-04   -0.12986E-04  2096   0.252E-02    0.171E-01
RMM:  14    -0.116082371616E+04    0.32440E-04   -0.68236E-05  1892   0.188E-02    0.102E-01
RMM:  15    -0.116082372993E+04   -0.13771E-04   -0.23003E-05  1732   0.106E-02    0.606E-02
RMM:  16    -0.116082373422E+04   -0.42883E-05   -0.15987E-05  1529   0.883E-03    0.512E-02
RMM:  17    -0.116082373929E+04   -0.50719E-05   -0.83465E-06  1443   0.669E-03    0.310E-02
RMM:  18    -0.116082374836E+04   -0.90706E-05   -0.53997E-06  1413   0.534E-03    0.280E-02
RMM:  19    -0.116082375433E+04   -0.59635E-05   -0.33761E-06  1350   0.435E-03    0.182E-02
RMM:  20    -0.116082376034E+04   -0.60173E-05   -0.18371E-06  1309   0.327E-03    0.152E-02
RMM:  21    -0.116082376419E+04   -0.38489E-05   -0.96395E-07  1222   0.245E-03    0.109E-02
RMM:  22    -0.116082376911E+04   -0.49208E-05   -0.60011E-07  1173   0.176E-03    0.991E-03
RMM:  23    -0.116082377254E+04   -0.34275E-05   -0.48895E-07  1134   0.162E-03    0.686E-03
RMM:  24    -0.116082377875E+04   -0.62063E-05   -0.31941E-07  1137   0.118E-03    0.426E-03
RMM:  25    -0.116082378398E+04   -0.52313E-05   -0.24182E-07  1086   0.950E-04    0.276E-03
RMM:  26    -0.116082378748E+04   -0.35008E-05   -0.19020E-07  1028   0.767E-04    0.196E-03
RMM:  27    -0.116082379004E+04   -0.25592E-05   -0.14648E-07   967   0.645E-04    0.145E-03
RMM:  28    -0.116082379297E+04   -0.29279E-05   -0.15722E-07   987   0.591E-04    0.900E-04
RMM:  29    -0.116082379505E+04   -0.20782E-05   -0.14659E-07   976   0.589E-04    0.778E-04
RMM:  30    -0.116082379622E+04   -0.11794E-05   -0.12249E-07   893   0.515E-04    0.711E-04
RMM:  31    -0.116082379696E+04   -0.73273E-06   -0.95364E-08   835   0.474E-04
 328 F= -.11697704E+04 E0= -.11697509E+04  d E =-.101063E-01  mag=    24.0000
 curvature:  -2.47 expect dE=-0.812E-01 dE for cont linesearch -0.214E-06
 trial: gam= 1.33059 g(F)=  0.327E-01 g(S)=  0.134E-03 ort =-0.115E-03 (trialstep = 0.230E+00)
 search vector abs. value=  0.302E+00
 bond charge predicted
       N       E                     dE             d eps       ncg     rms          rms(c)
DAV:   1    -0.116082143897E+04    0.23573E-02   -0.37725E+00  1992   0.425E+00    0.625E-01
RMM:   2    -0.116083948811E+04   -0.18049E-01   -0.86006E-02  2065   0.702E-01    0.245E+00
RMM:   3    -0.116083397557E+04    0.55125E-02   -0.17483E-02  2212   0.320E-01    0.166E+00
RMM:   4    -0.116083712682E+04   -0.31513E-02   -0.98249E-03  2466   0.219E-01    0.190E+00
RMM:   5    -0.116083111773E+04    0.60091E-02   -0.42189E-03  2219   0.147E-01    0.515E-01
RMM:   6    -0.116083165797E+04   -0.54024E-03   -0.14619E-03  2261   0.860E-02    0.507E-01
RMM:   7    -0.116083165628E+04    0.16935E-05   -0.57631E-04  2325   0.470E-02    0.498E-01
RMM:   8    -0.116083146009E+04    0.19619E-03   -0.41400E-04  2190   0.458E-02    0.240E-01
RMM:   9    -0.116083160837E+04   -0.14827E-03   -0.44799E-04  2199   0.460E-02    0.284E-01
RMM:  10    -0.116083171354E+04   -0.10517E-03   -0.44251E-04  2187   0.436E-02    0.338E-01
RMM:  11    -0.116083153881E+04    0.17473E-03   -0.31452E-04  2128   0.380E-02    0.222E-01
RMM:  12    -0.116083145685E+04    0.81959E-04   -0.12033E-04  2028   0.242E-02    0.116E-01
RMM:  13    -0.116083147916E+04   -0.22309E-04   -0.53333E-05  1879   0.161E-02    0.106E-01
RMM:  14    -0.116083146947E+04    0.96895E-05   -0.27192E-05  1678   0.119E-02    0.675E-02
RMM:  15    -0.116083147687E+04   -0.73966E-05   -0.11311E-05  1525   0.765E-03    0.518E-02
RMM:  16    -0.116083147599E+04    0.87376E-06   -0.67879E-06  1408   0.586E-03
 329 F= -.11697767E+04 E0= -.11697573E+04  d E =-.638032E-02  mag=    24.0000
 ZBRENT: can't locate minimum, use default step
 trial-energy change:   -0.006380  1 .order   -0.006411   -0.007517   -0.005304
 step:   0.9197(harm=  0.7810)  dis= 0.02702  next Energy= -1169.785597 (dE=-0.152E-01)
 bond charge predicted
       N       E                     dE             d eps       ncg     rms          rms(c)
DAV:   1    -0.116074859190E+04    0.82885E-01   -0.33953E+01  1992   0.128E+01    0.191E+00
RMM:   2    -0.116095127538E+04   -0.20268E+00   -0.81712E-01  2073   0.215E+00    0.846E+00
RMM:   3    -0.116085025594E+04    0.10102E+00   -0.17081E-01  2236   0.989E-01    0.368E+00
RMM:   4    -0.116089287658E+04   -0.42621E-01   -0.79119E-02  2470   0.614E-01    0.643E+00
RMM:   5    -0.116083564510E+04    0.57231E-01   -0.34940E-02  2277   0.398E-01    0.171E+00
RMM:   6    -0.116084181957E+04   -0.61745E-02   -0.16192E-02  2205   0.289E-01    0.118E+00
RMM:   7    -0.116084452496E+04   -0.27054E-02   -0.53776E-03  2291   0.149E-01    0.169E+00
RMM:   8    -0.116084241568E+04    0.21093E-02   -0.36205E-03  2296   0.124E-01    0.131E+00
RMM:   9    -0.116084249959E+04   -0.83913E-04   -0.42892E-03  2165   0.144E-01    0.106E+00
RMM:  10    -0.116084293799E+04   -0.43840E-03   -0.34865E-03  2167   0.123E-01    0.938E-01
RMM:  11    -0.116084147850E+04    0.14595E-02   -0.27397E-03  2175   0.114E-01    0.534E-01
RMM:  12    -0.116084160029E+04   -0.12178E-03   -0.17735E-03  2197   0.908E-02    0.509E-01
RMM:  13    -0.116084138651E+04    0.21377E-03   -0.10227E-03  2201   0.721E-02    0.385E-01
RMM:  14    -0.116084133073E+04    0.55781E-04   -0.58070E-04  2186   0.539E-02    0.318E-01
RMM:  15    -0.116084137461E+04   -0.43873E-04   -0.33542E-04  2208   0.387E-02    0.262E-01
RMM:  16    -0.116084126474E+04    0.10986E-03   -0.18643E-04  2027   0.312E-02    0.144E-01
RMM:  17    -0.116084130355E+04   -0.38808E-04   -0.11107E-04  1981   0.211E-02    0.136E-01
RMM:  18    -0.116084129493E+04    0.86157E-05   -0.57589E-05  1833   0.172E-02    0.552E-02
RMM:  19    -0.116084133224E+04   -0.37312E-04   -0.30085E-05  1758   0.121E-02    0.714E-02
RMM:  20    -0.116084134175E+04   -0.95018E-05   -0.17264E-05  1563   0.929E-03    0.449E-02
RMM:  21    -0.116084135661E+04   -0.14863E-04   -0.76635E-06  1463   0.660E-03    0.279E-02
RMM:  22    -0.116084137789E+04   -0.21284E-04   -0.38358E-06  1380   0.446E-03    0.266E-02
RMM:  23    -0.116084138818E+04   -0.10290E-04   -0.32436E-06  1345   0.418E-03    0.236E-02
RMM:  24    -0.116084140593E+04   -0.17747E-04   -0.16463E-06  1291   0.304E-03    0.986E-03
RMM:  25    -0.116084142362E+04   -0.17693E-04   -0.10195E-06  1215   0.209E-03    0.840E-03
RMM:  26    -0.116084143701E+04   -0.13389E-04   -0.79548E-07  1194   0.178E-03    0.600E-03
RMM:  27    -0.116084144650E+04   -0.94847E-05   -0.60843E-07  1140   0.135E-03    0.436E-03
RMM:  28    -0.116084145558E+04   -0.90887E-05   -0.57138E-07  1124   0.120E-03    0.310E-03
RMM:  29    -0.116084146245E+04   -0.68632E-05   -0.57106E-07  1131   0.115E-03    0.223E-03
RMM:  30    -0.116084146579E+04   -0.33407E-05   -0.45487E-07  1076   0.103E-03    0.170E-03
RMM:  31    -0.116084146760E+04   -0.18103E-05   -0.35296E-07  1041   0.869E-04    0.983E-04
RMM:  32    -0.116084146853E+04   -0.92754E-06   -0.25186E-07   978   0.742E-04
 330 F= -.11697828E+04 E0= -.11697634E+04  d E =-.124523E-01  mag=    24.0000
 curvature:  -3.38 expect dE=-0.164E+00 dE for cont linesearch -0.348E-03
 trial: gam= 1.64079 g(F)=  0.477E-01 g(S)=  0.707E-03 ort =-0.558E-02 (trialstep = 0.132E+00)
 search vector abs. value=  0.844E+00
 bond charge predicted
       N       E                     dE             d eps       ncg     rms          rms(c)
DAV:   1    -0.116083751134E+04    0.39563E-02   -0.34562E+00  2022   0.407E+00    0.589E-01
RMM:   2    -0.116085574645E+04   -0.18235E-01   -0.79603E-02  2060   0.672E-01    0.270E+00
RMM:   3    -0.116084747514E+04    0.82713E-02   -0.15873E-02  2217   0.307E-01    0.142E+00
RMM:   4    -0.116085151075E+04   -0.40356E-02   -0.88985E-03  2468   0.209E-01    0.170E+00
RMM:   5    -0.116084657366E+04    0.49371E-02   -0.34629E-03  2224   0.131E-01    0.549E-01
RMM:   6    -0.116084691077E+04   -0.33711E-03   -0.12721E-03  2274   0.795E-02    0.540E-01
RMM:   7    -0.116084676467E+04    0.14610E-03   -0.54388E-04  2283   0.467E-02    0.408E-01
RMM:   8    -0.116084668668E+04    0.77989E-04   -0.33835E-04  2190   0.417E-02    0.210E-01
RMM:   9    -0.116084685011E+04   -0.16343E-03   -0.39362E-04  2193   0.426E-02    0.290E-01
RMM:  10    -0.116084686100E+04   -0.10890E-04   -0.36475E-04  2185   0.399E-02    0.292E-01
RMM:  11    -0.116084674513E+04    0.11587E-03   -0.24758E-04  2117   0.340E-02    0.193E-01
RMM:  12    -0.116084668502E+04    0.60104E-04   -0.99913E-05  1988   0.221E-02    0.102E-01
RMM:  13    -0.116084670384E+04   -0.18818E-04   -0.47709E-05  1835   0.151E-02    0.970E-02
RMM:  14    -0.116084669484E+04    0.90068E-05   -0.24690E-05  1613   0.114E-02    0.589E-02
RMM:  15    -0.116084670453E+04   -0.96973E-05   -0.95235E-06  1486   0.715E-03    0.488E-02
RMM:  16    -0.116084670410E+04    0.43192E-06   -0.57833E-06  1406   0.567E-03
 331 F= -.11697872E+04 E0= -.11697678E+04  d E =-.442506E-02  mag=    24.0000
 trial-energy change:   -0.004425  1 .order   -0.004472   -0.005170   -0.003774
 step:   0.4880(harm=  0.4880)  dis= 0.02389  next Energy= -1169.792393 (dE=-0.957E-02)
 bond charge predicted
       N       E                     dE             d eps       ncg     rms          rms(c)
DAV:   1    -0.116078537928E+04    0.61325E-01   -0.25262E+01  1992   0.110E+01    0.163E+00
RMM:   2    -0.116094956656E+04   -0.16419E+00   -0.61095E-01  2067   0.185E+00    0.810E+00
RMM:   3    -0.116085321317E+04    0.96353E-01   -0.12615E-01  2236   0.858E-01    0.301E+00
RMM:   4    -0.116088987012E+04   -0.36657E-01   -0.58143E-02  2474   0.530E-01    0.535E+00
RMM:   5    -0.116085051559E+04    0.39355E-01   -0.24016E-02  2269   0.332E-01    0.151E+00
RMM:   6    -0.116085424340E+04   -0.37278E-02   -0.11602E-02  2216   0.245E-01    0.106E+00
RMM:   7    -0.116085771350E+04   -0.34701E-02   -0.39357E-03  2344   0.123E-01    0.191E+00
RMM:   8    -0.116085317276E+04    0.45407E-02   -0.31870E-03  2205   0.122E-01    0.750E-01
RMM:   9    -0.116085517729E+04   -0.20045E-02   -0.33478E-03  2160   0.128E-01    0.921E-01
RMM:  10    -0.116085467138E+04    0.50590E-03   -0.22102E-03  2190   0.978E-02    0.729E-01
RMM:  11    -0.116085417830E+04    0.49308E-03   -0.18273E-03  2168   0.932E-02    0.534E-01
RMM:  12    -0.116085396492E+04    0.21338E-03   -0.10999E-03  2187   0.717E-02    0.412E-01
RMM:  13    -0.116085390402E+04    0.60896E-04   -0.57800E-04  2196   0.546E-02    0.313E-01
RMM:  14    -0.116085388385E+04    0.20172E-04   -0.37958E-04  2179   0.423E-02    0.244E-01
RMM:  15    -0.116085392898E+04   -0.45129E-04   -0.19015E-04  2144   0.298E-02    0.195E-01
RMM:  16    -0.116085389072E+04    0.38264E-04   -0.11922E-04  1950   0.239E-02    0.154E-01
RMM:  17    -0.116085390826E+04   -0.17547E-04   -0.62383E-05  1842   0.167E-02    0.109E-01
RMM:  18    -0.116085391768E+04   -0.94205E-05   -0.34876E-05  1721   0.132E-02    0.523E-02
RMM:  19    -0.116085395166E+04   -0.33972E-04   -0.20891E-05  1635   0.100E-02    0.626E-02
RMM:  20    -0.116085396643E+04   -0.14770E-04   -0.11230E-05  1450   0.749E-03    0.356E-02
RMM:  21    -0.116085398356E+04   -0.17138E-04   -0.52268E-06  1413   0.550E-03    0.214E-02
RMM:  22    -0.116085401051E+04   -0.26946E-04   -0.22291E-06  1327   0.332E-03    0.145E-02
RMM:  23    -0.116085402652E+04   -0.16007E-04   -0.24464E-06  1336   0.365E-03    0.234E-02
RMM:  24    -0.116085404171E+04   -0.15196E-04   -0.13830E-06  1272   0.285E-03    0.817E-03
RMM:  25    -0.116085405854E+04   -0.16829E-04   -0.73139E-07  1188   0.171E-03    0.666E-03
RMM:  26    -0.116085407369E+04   -0.15152E-04   -0.60929E-07  1138   0.146E-03    0.533E-03
RMM:  27    -0.116085408777E+04   -0.14077E-04   -0.57855E-07  1124   0.128E-03    0.491E-03
RMM:  28    -0.116085409948E+04   -0.11712E-04   -0.55073E-07  1112   0.115E-03    0.364E-03
RMM:  29    -0.116085410874E+04   -0.92546E-05   -0.52168E-07  1090   0.108E-03    0.264E-03
RMM:  30    -0.116085411523E+04   -0.64916E-05   -0.51074E-07  1084   0.103E-03    0.220E-03
RMM:  31    -0.116085411840E+04   -0.31694E-05   -0.38793E-07  1027   0.891E-04    0.918E-04
RMM:  32    -0.116085412002E+04   -0.16224E-05   -0.27873E-07   969   0.746E-04    0.803E-04
RMM:  33    -0.116085412129E+04   -0.12664E-05   -0.21573E-07   923   0.644E-04    0.728E-04
RMM:  34    -0.116085412211E+04   -0.82373E-06   -0.16272E-07   868   0.575E-04

===================================================================================
=   BAD TERMINATION OF ONE OF YOUR APPLICATION PROCESSES
=   RANK 0 PID 30364 RUNNING AT b020
=   KILLED BY SIGNAL: 9 (Killed)
===================================================================================

===================================================================================
=   BAD TERMINATION OF ONE OF YOUR APPLICATION PROCESSES
=   RANK 1 PID 30365 RUNNING AT b020
=   KILLED BY SIGNAL: 9 (Killed)
===================================================================================

===================================================================================
=   BAD TERMINATION OF ONE OF YOUR APPLICATION PROCESSES
=   RANK 2 PID 30366 RUNNING AT b020
=   KILLED BY SIGNAL: 9 (Killed)
===================================================================================

===================================================================================
=   BAD TERMINATION OF ONE OF YOUR APPLICATION PROCESSES
=   RANK 3 PID 30367 RUNNING AT b020
=   KILLED BY SIGNAL: 9 (Killed)
===================================================================================

===================================================================================
=   BAD TERMINATION OF ONE OF YOUR APPLICATION PROCESSES
=   RANK 4 PID 30368 RUNNING AT b020
=   KILLED BY SIGNAL: 9 (Killed)
===================================================================================

===================================================================================
=   BAD TERMINATION OF ONE OF YOUR APPLICATION PROCESSES
=   RANK 5 PID 30369 RUNNING AT b020
=   KILLED BY SIGNAL: 9 (Killed)
===================================================================================

===================================================================================
=   BAD TERMINATION OF ONE OF YOUR APPLICATION PROCESSES
=   RANK 6 PID 30370 RUNNING AT b020
=   KILLED BY SIGNAL: 9 (Killed)
===================================================================================

===================================================================================
=   BAD TERMINATION OF ONE OF YOUR APPLICATION PROCESSES
=   RANK 7 PID 30371 RUNNING AT b020
=   KILLED BY SIGNAL: 9 (Killed)
===================================================================================

===================================================================================
=   BAD TERMINATION OF ONE OF YOUR APPLICATION PROCESSES
=   RANK 8 PID 30372 RUNNING AT b020
=   KILLED BY SIGNAL: 9 (Killed)
===================================================================================

===================================================================================
=   BAD TERMINATION OF ONE OF YOUR APPLICATION PROCESSES
=   RANK 9 PID 30373 RUNNING AT b020
=   KILLED BY SIGNAL: 9 (Killed)
===================================================================================

===================================================================================
=   BAD TERMINATION OF ONE OF YOUR APPLICATION PROCESSES
=   RANK 10 PID 30374 RUNNING AT b020
=   KILLED BY SIGNAL: 9 (Killed)
===================================================================================

===================================================================================
=   BAD TERMINATION OF ONE OF YOUR APPLICATION PROCESSES
=   RANK 11 PID 30375 RUNNING AT b020
=   KILLED BY SIGNAL: 9 (Killed)
===================================================================================

===================================================================================
=   BAD TERMINATION OF ONE OF YOUR APPLICATION PROCESSES
=   RANK 12 PID 30376 RUNNING AT b020
=   KILLED BY SIGNAL: 9 (Killed)
===================================================================================

===================================================================================
=   BAD TERMINATION OF ONE OF YOUR APPLICATION PROCESSES
=   RANK 13 PID 30377 RUNNING AT b020
=   KILLED BY SIGNAL: 9 (Killed)
===================================================================================

===================================================================================
=   BAD TERMINATION OF ONE OF YOUR APPLICATION PROCESSES
=   RANK 14 PID 30378 RUNNING AT b020
=   KILLED BY SIGNAL: 9 (Killed)
===================================================================================

===================================================================================
=   BAD TERMINATION OF ONE OF YOUR APPLICATION PROCESSES
=   RANK 15 PID 30379 RUNNING AT b020
=   KILLED BY SIGNAL: 9 (Killed)
===================================================================================

===================================================================================
=   BAD TERMINATION OF ONE OF YOUR APPLICATION PROCESSES
=   RANK 16 PID 30380 RUNNING AT b020
=   KILLED BY SIGNAL: 9 (Killed)
===================================================================================

===================================================================================
=   BAD TERMINATION OF ONE OF YOUR APPLICATION PROCESSES
=   RANK 17 PID 30381 RUNNING AT b020
=   KILLED BY SIGNAL: 9 (Killed)
===================================================================================

===================================================================================
=   BAD TERMINATION OF ONE OF YOUR APPLICATION PROCESSES
=   RANK 18 PID 30382 RUNNING AT b020
=   KILLED BY SIGNAL: 9 (Killed)
===================================================================================

===================================================================================
=   BAD TERMINATION OF ONE OF YOUR APPLICATION PROCESSES
=   RANK 19 PID 30383 RUNNING AT b020
=   KILLED BY SIGNAL: 9 (Killed)
===================================================================================

===================================================================================
=   BAD TERMINATION OF ONE OF YOUR APPLICATION PROCESSES
=   RANK 20 PID 30384 RUNNING AT b020
=   KILLED BY SIGNAL: 9 (Killed)
===================================================================================

===================================================================================
=   BAD TERMINATION OF ONE OF YOUR APPLICATION PROCESSES
=   RANK 21 PID 30385 RUNNING AT b020
=   KILLED BY SIGNAL: 9 (Killed)
===================================================================================

===================================================================================
=   BAD TERMINATION OF ONE OF YOUR APPLICATION PROCESSES
=   RANK 22 PID 30386 RUNNING AT b020
=   KILLED BY SIGNAL: 9 (Killed)
===================================================================================

===================================================================================
=   BAD TERMINATION OF ONE OF YOUR APPLICATION PROCESSES
=   RANK 23 PID 30387 RUNNING AT b020
=   KILLED BY SIGNAL: 9 (Killed)
===================================================================================
