 running on   24 total cores
 distrk:  each k-point on   24 cores,    1 groups
 distr:  one band on    4 cores,    6 groups
 using from now: INCAR     
 vasp.5.4.4.18Apr17-6-g9f103f2a35 (build May 21 2019 18:55:53) complex          
  
 POSCAR found type information on POSCAR  O  C  H  Co Li
 POSCAR found :  5 types and     159 ions
 LDA part: xc-table for Pade appr. of Perdew
 POSCAR found type information on POSCAR  O  C  H  Co Li
 POSCAR found :  5 types and     159 ions
 POSCAR, INCAR and KPOINTS ok, starting setup
 FFT: planning ...
 WAVECAR not read
 WARNING: random wavefunctions but no delay for mixing, default for NELMDL
 entering main loop
       N       E                     dE             d eps       ncg     rms          rms(c)
DAV:   1     0.830946705166E+04    0.83095E+04   -0.33874E+05  1992   0.139E+03
DAV:   2     0.694254790315E+03   -0.76152E+04   -0.68855E+04  2244   0.437E+02
DAV:   3    -0.119418344528E+04   -0.18884E+04   -0.17837E+04  3312   0.212E+02
DAV:   4    -0.133657517514E+04   -0.14239E+03   -0.13420E+03  3144   0.667E+01
DAV:   5    -0.134354496521E+04   -0.69698E+01   -0.65588E+01  3348   0.142E+01    0.155E+02
RMM:   6    -0.179353307517E+04   -0.44999E+03   -0.31966E+03  2569   0.131E+02    0.494E+02
RMM:   7    -0.156895377874E+04    0.22458E+03   -0.23059E+02  2005   0.450E+01    0.297E+02
RMM:   8    -0.116705279355E+04    0.40190E+03   -0.48062E+02  2209   0.433E+01    0.851E+01
RMM:   9    -0.139379854640E+04   -0.22675E+03   -0.89526E+01  2158   0.193E+01    0.168E+02
RMM:  10    -0.127033696651E+04    0.12346E+03   -0.10211E+02  2078   0.226E+01    0.141E+02
RMM:  11    -0.116941276157E+04    0.10092E+03   -0.78905E+01  2067   0.202E+01    0.104E+02
RMM:  12    -0.121630694205E+04   -0.46894E+02   -0.49225E+01  2108   0.153E+01    0.120E+02
RMM:  13    -0.115589172659E+04    0.60415E+02   -0.45491E+01  2060   0.153E+01    0.871E+01
RMM:  14    -0.113360470193E+04    0.22287E+02   -0.25675E+01  2110   0.107E+01    0.705E+01
RMM:  15    -0.114129346942E+04   -0.76888E+01   -0.16034E+01  2135   0.819E+00    0.682E+01
RMM:  16    -0.113123599461E+04    0.10057E+02   -0.77812E+00  2124   0.617E+00    0.618E+01
RMM:  17    -0.112511800073E+04    0.61180E+01   -0.37637E+00  2119   0.413E+00    0.417E+01
RMM:  18    -0.112722575928E+04   -0.21078E+01   -0.35006E+00  2083   0.394E+00    0.501E+01
RMM:  19    -0.112658934025E+04    0.63642E+00   -0.26810E+00  2145   0.345E+00    0.336E+01
RMM:  20    -0.112833140542E+04   -0.17421E+01   -0.21337E+00  2064   0.315E+00    0.337E+01
RMM:  21    -0.112993037138E+04   -0.15990E+01   -0.14898E+00  2059   0.262E+00    0.272E+01
RMM:  22    -0.113092630253E+04   -0.99593E+00   -0.10062E+00  2096   0.213E+00    0.290E+01
RMM:  23    -0.113058941837E+04    0.33688E+00   -0.52201E-01  2058   0.152E+00    0.229E+01
RMM:  24    -0.113068292877E+04   -0.93510E-01   -0.20528E-01  2050   0.940E-01    0.210E+01
RMM:  25    -0.113058358461E+04    0.99344E-01   -0.57694E-02  2277   0.484E-01    0.202E+01
RMM:  26    -0.113084709549E+04   -0.26351E+00   -0.56042E-02  2094   0.486E-01    0.216E+01
RMM:  27    -0.113086951410E+04   -0.22419E-01   -0.24864E-02  2069   0.392E-01    0.220E+01
RMM:  28    -0.113064592058E+04    0.22359E+00   -0.50039E-02  2057   0.504E-01    0.215E+01
RMM:  29    -0.113065249911E+04   -0.65785E-02   -0.12101E-02  2081   0.244E-01    0.217E+01
RMM:  30    -0.113063606881E+04    0.16430E-01   -0.17044E-02  2034   0.284E-01    0.217E+01
RMM:  31    -0.113082318806E+04   -0.18712E+00   -0.45983E-02  2063   0.435E-01    0.235E+01
RMM:  32    -0.113087577050E+04   -0.52582E-01   -0.19214E-02  2078   0.308E-01    0.234E+01
RMM:  33    -0.113125807385E+04   -0.38230E+00   -0.10362E-01  2056   0.599E-01    0.245E+01
RMM:  34    -0.113126472149E+04   -0.66476E-02   -0.91623E-02  2122   0.639E-01    0.230E+01
RMM:  35    -0.113151013032E+04   -0.24541E+00   -0.25128E-02  2162   0.336E-01    0.239E+01
RMM:  36    -0.113165912275E+04   -0.14899E+00   -0.11016E-02  2140   0.251E-01    0.240E+01
RMM:  37    -0.113163934353E+04    0.19779E-01   -0.59014E-03  2116   0.178E-01    0.242E+01
RMM:  38    -0.113184099706E+04   -0.20165E+00   -0.41973E-02  2081   0.412E-01    0.245E+01
RMM:  39    -0.113259998079E+04   -0.75898E+00   -0.10032E-01  2028   0.658E-01    0.237E+01
RMM:  40    -0.113310887610E+04   -0.50890E+00   -0.14294E-01  2075   0.811E-01    0.229E+01
RMM:  41    -0.113375050484E+04   -0.64163E+00   -0.73197E-02  2150   0.551E-01    0.234E+01
RMM:  42    -0.113366040460E+04    0.90100E-01   -0.20405E-02  2179   0.310E-01    0.234E+01
RMM:  43    -0.113363637907E+04    0.24026E-01   -0.54890E-03  2471   0.120E-01    0.234E+01
RMM:  44    -0.113386395304E+04   -0.22757E+00   -0.76399E-03  2071   0.171E-01    0.235E+01
RMM:  45    -0.113388834689E+04   -0.24394E-01   -0.26579E-02  2121   0.304E-01    0.231E+01
RMM:  46    -0.113386581543E+04    0.22531E-01   -0.10371E-02  2039   0.233E-01    0.229E+01
RMM:  47    -0.113388017369E+04   -0.14358E-01   -0.61579E-03  2274   0.141E-01    0.230E+01
RMM:  48    -0.113387157911E+04    0.85946E-02   -0.64709E-02  2050   0.463E-01    0.223E+01
RMM:  49    -0.113463893764E+04   -0.76736E+00   -0.37708E-01  2088   0.100E+00    0.216E+01
RMM:  50    -0.113841364959E+04   -0.37747E+01   -0.18301E+00  2060   0.221E+00    0.232E+01
RMM:  51    -0.114038588153E+04   -0.19722E+01   -0.37582E+00  2053   0.396E+00    0.282E+01
RMM:  52    -0.114071927483E+04   -0.33339E+00   -0.13017E+00  2488   0.193E+00    0.312E+01
RMM:  53    -0.113998678473E+04    0.73249E+00   -0.59189E-01  2244   0.126E+00    0.330E+01
RMM:  54    -0.113955353399E+04    0.43325E+00   -0.32706E-01  2335   0.101E+00    0.361E+01
RMM:  55    -0.113893658657E+04    0.61695E+00   -0.19485E-01  2287   0.796E-01    0.354E+01
RMM:  56    -0.113795480079E+04    0.98179E+00   -0.51500E-01  2190   0.145E+00    0.392E+01
RMM:  57    -0.113773118253E+04    0.22362E+00   -0.91166E-02  2094   0.686E-01    0.385E+01
RMM:  58    -0.113832438263E+04   -0.59320E+00   -0.38261E-01  2050   0.117E+00    0.317E+01
RMM:  59    -0.113822994327E+04    0.94439E-01   -0.41775E-01  2071   0.131E+00    0.322E+01
RMM:  60    -0.113936565495E+04   -0.11357E+01   -0.52514E-01  2145   0.135E+00    0.295E+01
RMM:  61    -0.114036181982E+04   -0.99616E+00   -0.53915E-01  2198   0.142E+00    0.285E+01
RMM:  62    -0.114053077587E+04   -0.16896E+00   -0.28114E-01  2117   0.116E+00    0.271E+01
RMM:  63    -0.114011960226E+04    0.41117E+00   -0.29553E-01  2137   0.115E+00    0.233E+01
RMM:  64    -0.114098765483E+04   -0.86805E+00   -0.32416E-01  2160   0.109E+00    0.235E+01
RMM:  65    -0.114135269665E+04   -0.36504E+00   -0.28038E-01  2213   0.980E-01    0.223E+01
RMM:  66    -0.114759544079E+04   -0.62427E+01   -0.32202E+00  2005   0.338E+00    0.340E+01
RMM:  67    -0.114497437171E+04    0.26211E+01   -0.77174E-01  2015   0.200E+00    0.232E+01
RMM:  68    -0.114488750744E+04    0.86864E-01   -0.30611E-01  2137   0.104E+00    0.231E+01
RMM:  69    -0.114449834364E+04    0.38916E+00   -0.19511E-01  2153   0.837E-01    0.233E+01
RMM:  70    -0.114445687850E+04    0.41465E-01   -0.13558E-01  2188   0.672E-01    0.240E+01
RMM:  71    -0.114646999236E+04   -0.20131E+01   -0.21733E+00  2003   0.285E+00    0.294E+01
RMM:  72    -0.114582788653E+04    0.64211E+00   -0.67583E-01  2037   0.189E+00    0.198E+01
RMM:  73    -0.114642754330E+04   -0.59966E+00   -0.32236E-01  2119   0.113E+00    0.175E+01
RMM:  74    -0.114657902247E+04   -0.15148E+00   -0.25581E-01  2216   0.903E-01    0.168E+01
RMM:  75    -0.114716811908E+04   -0.58910E+00   -0.25803E-01  2134   0.976E-01    0.164E+01
RMM:  76    -0.114834944802E+04   -0.11813E+01   -0.71405E-01  2160   0.172E+00    0.270E+01
RMM:  77    -0.114713111479E+04    0.12183E+01   -0.61080E-01  2089   0.170E+00    0.192E+01
RMM:  78    -0.114774469260E+04   -0.61358E+00   -0.20107E-01  2081   0.979E-01    0.172E+01
RMM:  79    -0.114878064914E+04   -0.10360E+01   -0.14925E-01  2081   0.712E-01    0.167E+01
RMM:  80    -0.115010248359E+04   -0.13218E+01   -0.27072E-01  2155   0.911E-01    0.158E+01
RMM:  81    -0.115154609186E+04   -0.14436E+01   -0.13495E+00  2139   0.231E+00    0.261E+01
RMM:  82    -0.115138033726E+04    0.16575E+00   -0.51414E-01  2039   0.166E+00    0.151E+01
RMM:  83    -0.115163025717E+04   -0.24992E+00   -0.12639E-01  2297   0.695E-01    0.159E+01
RMM:  84    -0.115166098619E+04   -0.30729E-01   -0.15337E-01  2047   0.788E-01    0.166E+01
RMM:  85    -0.115170958489E+04   -0.48599E-01   -0.61348E-02  2128   0.515E-01    0.164E+01
RMM:  86    -0.115199743504E+04   -0.28785E+00   -0.25394E-01  2006   0.108E+00    0.147E+01
RMM:  87    -0.115203582428E+04   -0.38389E-01   -0.79327E-02  2086   0.596E-01    0.157E+01
RMM:  88    -0.115200539605E+04    0.30428E-01   -0.30388E-02  2208   0.387E-01    0.158E+01
RMM:  89    -0.115204229839E+04   -0.36902E-01   -0.25060E-02  2109   0.319E-01    0.157E+01
RMM:  90    -0.115202799464E+04    0.14304E-01   -0.17098E-02  2145   0.260E-01    0.158E+01
RMM:  91    -0.115194037751E+04    0.87617E-01   -0.87831E-02  2050   0.615E-01    0.183E+01
RMM:  92    -0.115172774200E+04    0.21264E+00   -0.41394E-02  2102   0.488E-01    0.174E+01
RMM:  93    -0.115194712425E+04   -0.21938E+00   -0.40564E-02  2100   0.387E-01    0.163E+01
RMM:  94    -0.115204215337E+04   -0.95029E-01   -0.53267E-02  2215   0.443E-01    0.146E+01
RMM:  95    -0.115213148136E+04   -0.89328E-01   -0.33563E-02  2110   0.377E-01    0.142E+01
RMM:  96    -0.115230925544E+04   -0.17777E+00   -0.18566E-01  2083   0.816E-01    0.144E+01
RMM:  97    -0.115269285305E+04   -0.38360E+00   -0.92971E-02  2147   0.643E-01    0.134E+01
RMM:  98    -0.115298006460E+04   -0.28721E+00   -0.73655E-02  2245   0.496E-01    0.135E+01
RMM:  99    -0.115308740942E+04   -0.10734E+00   -0.29686E-02  2189   0.333E-01    0.135E+01
RMM: 100    -0.115309751474E+04   -0.10105E-01   -0.89804E-03  2546   0.147E-01    0.135E+01
RMM: 101    -0.115360892822E+04   -0.51141E+00   -0.31367E-01  2073   0.115E+00    0.171E+01
RMM: 102    -0.115342435207E+04    0.18458E+00   -0.26650E-01  2076   0.114E+00    0.167E+01
RMM: 103    -0.115330737257E+04    0.11698E+00   -0.12115E-01  2112   0.770E-01    0.131E+01
RMM: 104    -0.115352160638E+04   -0.21423E+00   -0.32674E-02  2185   0.371E-01    0.127E+01
RMM: 105    -0.115359990104E+04   -0.78295E-01   -0.11628E-02  2307   0.192E-01    0.124E+01
RMM: 106    -0.115464358486E+04   -0.10437E+01   -0.62377E-01  2057   0.151E+00    0.245E+01
RMM: 107    -0.115401983924E+04    0.62375E+00   -0.49356E-01  2044   0.151E+00    0.149E+01
RMM: 108    -0.115404387424E+04   -0.24035E-01   -0.94942E-02  2046   0.683E-01    0.134E+01
RMM: 109    -0.115423000171E+04   -0.18613E+00   -0.31969E-02  2174   0.356E-01    0.136E+01
RMM: 110    -0.115418546599E+04    0.44536E-01   -0.70766E-03  2221   0.170E-01    0.135E+01
RMM: 111    -0.115379094660E+04    0.39452E+00   -0.13738E-01  2004   0.689E-01    0.140E+01
RMM: 112    -0.115438279000E+04   -0.59184E+00   -0.82964E-02  2041   0.608E-01    0.150E+01
RMM: 113    -0.115457005838E+04   -0.18727E+00   -0.32815E-02  2199   0.376E-01    0.140E+01
RMM: 114    -0.115514125322E+04   -0.57119E+00   -0.12653E-01  2054   0.617E-01    0.118E+01
RMM: 115    -0.115569104769E+04   -0.54979E+00   -0.12044E-01  2248   0.558E-01    0.111E+01
RMM: 116    -0.115593269515E+04   -0.24165E+00   -0.10595E-01  2184   0.610E-01    0.115E+01
RMM: 117    -0.115604943691E+04   -0.11674E+00   -0.53765E-02  2173   0.481E-01    0.105E+01
RMM: 118    -0.115636521290E+04   -0.31578E+00   -0.37510E-02  2212   0.321E-01    0.113E+01
RMM: 119    -0.115653976725E+04   -0.17455E+00   -0.41633E-02  2189   0.357E-01    0.109E+01
RMM: 120    -0.115679219957E+04   -0.25243E+00   -0.46394E-02  2325   0.346E-01
   1 F= -.11657327E+04 E0= -.11657186E+04  d E =-.116573E+04  mag=    31.4547
 curvature:   0.00 expect dE= 0.000E+00 dE for cont linesearch  0.000E+00
 trial: gam= 0.00000 g(F)=  0.534E+00 g(S)=  0.130E-01 ort = 0.000E+00 (trialstep = 0.100E+01)
 search vector abs. value=  0.547E+00
 bond charge predicted
       N       E                     dE             d eps       ncg     rms          rms(c)
DAV:   1    -0.115707783566E+04   -0.53807E+00   -0.18573E+02  2136   0.266E+01    0.125E+01
RMM:   2    -0.117743781591E+04   -0.20360E+02   -0.17746E+01  2122   0.994E+00    0.798E+01
RMM:   3    -0.116223431259E+04    0.15204E+02   -0.98084E+00  2136   0.716E+00    0.439E+01
RMM:   4    -0.115802880522E+04    0.42055E+01   -0.21740E+00  2259   0.316E+00    0.143E+01
RMM:   5    -0.115899763977E+04   -0.96883E+00   -0.14343E+00  2200   0.238E+00    0.260E+01
RMM:   6    -0.115806803697E+04    0.92960E+00   -0.60055E-01  2180   0.165E+00    0.142E+01
RMM:   7    -0.115781440304E+04    0.25363E+00   -0.26858E-01  2183   0.113E+00    0.821E+00
RMM:   8    -0.115804213115E+04   -0.22773E+00   -0.32381E-01  2154   0.118E+00    0.115E+01
RMM:   9    -0.115806818166E+04   -0.26051E-01   -0.21040E-01  2140   0.997E-01    0.110E+01
RMM:  10    -0.115796296937E+04    0.10521E+00   -0.86331E-02  2196   0.660E-01    0.828E+00
RMM:  11    -0.115801404915E+04   -0.51080E-01   -0.85653E-02  2141   0.599E-01    0.827E+00
RMM:  12    -0.115807730445E+04   -0.63255E-01   -0.16300E-01  2143   0.853E-01    0.937E+00
RMM:  13    -0.115813707105E+04   -0.59767E-01   -0.17000E-01  2154   0.866E-01    0.847E+00
RMM:  14    -0.115811267247E+04    0.24399E-01   -0.76895E-02  2233   0.578E-01    0.631E+00
RMM:  15    -0.115822761057E+04   -0.11494E+00   -0.80725E-02  2147   0.606E-01    0.800E+00
RMM:  16    -0.115822297567E+04    0.46349E-02   -0.44130E-02  2166   0.464E-01    0.766E+00
RMM:  17    -0.115825970070E+04   -0.36725E-01   -0.23376E-02  2153   0.321E-01    0.683E+00
RMM:  18    -0.115825125185E+04    0.84488E-02   -0.61005E-03  2260   0.152E-01    0.760E+00
RMM:  19    -0.115837577962E+04   -0.12453E+00   -0.48529E-02  2079   0.438E-01    0.609E+00
RMM:  20    -0.115839621619E+04   -0.20437E-01   -0.40942E-02  2129   0.449E-01    0.499E+00
RMM:  21    -0.115845285219E+04   -0.56636E-01   -0.24763E-02  2149   0.346E-01    0.614E+00
RMM:  22    -0.115845866856E+04   -0.58164E-02   -0.10863E-02  2131   0.213E-01    0.727E+00
RMM:  23    -0.115854239997E+04   -0.83731E-01   -0.26068E-02  2145   0.338E-01    0.967E+00
RMM:  24    -0.115853894906E+04    0.34509E-02   -0.17496E-02  2115   0.313E-01    0.108E+01
RMM:  25    -0.115855314854E+04   -0.14199E-01   -0.46085E-03  2204   0.155E-01    0.114E+01
RMM:  26    -0.115860007734E+04   -0.46929E-01   -0.22957E-03  2205   0.107E-01    0.135E+01
RMM:  27    -0.115861180844E+04   -0.11731E-01   -0.36919E-03  2036   0.139E-01    0.144E+01
RMM:  28    -0.115858140846E+04    0.30400E-01   -0.49729E-03  2100   0.152E-01    0.137E+01
RMM:  29    -0.115859817212E+04   -0.16764E-01   -0.19020E-03  2158   0.932E-02    0.141E+01
RMM:  30    -0.115861101064E+04   -0.12839E-01   -0.13023E-03  2142   0.776E-02    0.147E+01
RMM:  31    -0.115860929345E+04    0.17172E-02   -0.44507E-04  2101   0.454E-02    0.151E+01
RMM:  32    -0.115860325044E+04    0.60430E-02   -0.42044E-04  2085   0.395E-02    0.151E+01
RMM:  33    -0.115860165141E+04    0.15990E-02   -0.83964E-04  2108   0.569E-02    0.152E+01
RMM:  34    -0.115860685789E+04   -0.52065E-02   -0.48929E-03  2003   0.136E-01    0.142E+01
RMM:  35    -0.115860592811E+04    0.92978E-03   -0.16492E-02  2093   0.257E-01    0.117E+01
RMM:  36    -0.115868855958E+04   -0.82631E-01   -0.12845E-02  2213   0.208E-01    0.807E+00
RMM:  37    -0.115880368452E+04   -0.11512E+00   -0.15122E-02  2132   0.239E-01    0.530E+00
RMM:  38    -0.115885869426E+04   -0.55010E-01   -0.10025E-02  2132   0.193E-01    0.413E+00
RMM:  39    -0.115887452245E+04   -0.15828E-01   -0.34944E-03  2454   0.103E-01    0.393E+00
RMM:  40    -0.115890183898E+04   -0.27317E-01   -0.17829E-03  2228   0.710E-02    0.436E+00
RMM:  41    -0.115900349781E+04   -0.10166E+00   -0.80312E-03  2019   0.143E-01    0.464E+00
RMM:  42    -0.115907549445E+04   -0.71997E-01   -0.71196E-03  2355   0.129E-01    0.325E+00
RMM:  43    -0.115909814163E+04   -0.22647E-01   -0.25173E-03  2432   0.875E-02    0.267E+00
RMM:  44    -0.115912580094E+04   -0.27659E-01   -0.21338E-03  2219   0.722E-02    0.259E+00
RMM:  45    -0.115915976878E+04   -0.33968E-01   -0.21043E-03  2312   0.696E-02    0.251E+00
RMM:  46    -0.115920629562E+04   -0.46527E-01   -0.35596E-03  2251   0.901E-02    0.235E+00
RMM:  47    -0.115927246182E+04   -0.66166E-01   -0.92810E-03  2275   0.134E-01    0.267E+00
RMM:  48    -0.115927673216E+04   -0.42703E-02   -0.24625E-03  2229   0.992E-02    0.285E+00
RMM:  49    -0.115927765651E+04   -0.92435E-03   -0.14564E-03  2539   0.511E-02    0.296E+00
RMM:  50    -0.115927691218E+04    0.74433E-03   -0.41219E-04  2191   0.327E-02    0.308E+00
RMM:  51    -0.115927698444E+04   -0.72263E-04   -0.85923E-05  2119   0.136E-02    0.306E+00
RMM:  52    -0.115927755430E+04   -0.56985E-03   -0.14549E-03  1991   0.649E-02    0.260E+00
RMM:  53    -0.115928424183E+04   -0.66875E-02   -0.48618E-04  1993   0.472E-02    0.289E+00
RMM:  54    -0.115929285029E+04   -0.86085E-02   -0.35765E-04  2223   0.334E-02    0.284E+00
RMM:  55    -0.115930176827E+04   -0.89180E-02   -0.64130E-04  2045   0.442E-02    0.257E+00
RMM:  56    -0.115931295860E+04   -0.11190E-01   -0.88496E-04  2265   0.506E-02    0.226E+00
RMM:  57    -0.115932666819E+04   -0.13710E-01   -0.27166E-03  2131   0.868E-02    0.169E+00
RMM:  58    -0.115932989929E+04   -0.32311E-02   -0.73898E-04  2267   0.516E-02    0.153E+00
RMM:  59    -0.115933676596E+04   -0.68667E-02   -0.11610E-03  2303   0.535E-02    0.125E+00
RMM:  60    -0.115933745714E+04   -0.69118E-03   -0.27197E-04  2108   0.320E-02    0.123E+00
RMM:  61    -0.115933915235E+04   -0.16952E-02   -0.16143E-04  2357   0.195E-02    0.124E+00
RMM:  62    -0.115935594111E+04   -0.16789E-01   -0.44914E-03  2041   0.113E-01    0.401E+00
RMM:  63    -0.115936012464E+04   -0.41835E-02   -0.46670E-03  2117   0.140E-01    0.503E+00
RMM:  64    -0.115935879363E+04    0.13310E-02   -0.14248E-03  2152   0.745E-02    0.582E+00
RMM:  65    -0.115935635502E+04    0.24386E-02   -0.70077E-04  2021   0.518E-02    0.623E+00
RMM:  66    -0.115935194040E+04    0.44146E-02   -0.34688E-04  2116   0.320E-02    0.616E+00
RMM:  67    -0.115935425002E+04   -0.23096E-02   -0.21315E-04  2075   0.262E-02    0.656E+00
RMM:  68    -0.115935578109E+04   -0.15311E-02   -0.17763E-04  2005   0.283E-02    0.654E+00
RMM:  69    -0.115935269974E+04    0.30813E-02   -0.19382E-04  1991   0.272E-02    0.625E+00
RMM:  70    -0.115935202271E+04    0.67703E-03   -0.36743E-04  2056   0.307E-02    0.567E+00
RMM:  71    -0.115935442356E+04   -0.24008E-02   -0.42452E-04  2045   0.352E-02    0.514E+00
RMM:  72    -0.115935815668E+04   -0.37331E-02   -0.56875E-04  2051   0.414E-02    0.455E+00
RMM:  73    -0.115936038181E+04   -0.22251E-02   -0.73280E-04  2155   0.432E-02    0.385E+00
RMM:  74    -0.115936633229E+04   -0.59505E-02   -0.48497E-04  2057   0.398E-02    0.386E+00
RMM:  75    -0.115936857773E+04   -0.22454E-02   -0.19554E-04  2247   0.198E-02    0.381E+00
RMM:  76    -0.115936986667E+04   -0.12889E-02   -0.47654E-05  1932   0.123E-02    0.386E+00
RMM:  77    -0.115937791721E+04   -0.80505E-02   -0.21953E-04  2131   0.270E-02    0.498E+00
RMM:  78    -0.115937612846E+04    0.17887E-02   -0.38788E-04  1933   0.422E-02    0.527E+00
RMM:  79    -0.115937541131E+04    0.71715E-03   -0.17410E-04  1952   0.295E-02    0.561E+00
RMM:  80    -0.115937371662E+04    0.16947E-02   -0.27379E-04  1965   0.313E-02    0.559E+00
RMM:  81    -0.115937379719E+04   -0.80567E-04   -0.34837E-04  2101   0.288E-02    0.564E+00
RMM:  82    -0.115937245367E+04    0.13435E-02   -0.31349E-04  2141   0.273E-02    0.543E+00
RMM:  83    -0.115937509453E+04   -0.26409E-02   -0.18007E-04  1921   0.294E-02    0.549E+00
RMM:  84    -0.115937654650E+04   -0.14520E-02   -0.62308E-05  2034   0.126E-02    0.554E+00
RMM:  85    -0.115937319343E+04    0.33531E-02   -0.48571E-05  1909   0.128E-02    0.521E+00
RMM:  86    -0.115937364387E+04   -0.45044E-03   -0.51703E-05  1815   0.141E-02    0.508E+00
RMM:  87    -0.115937678277E+04   -0.31389E-02   -0.73381E-05  1882   0.171E-02    0.529E+00
RMM:  88    -0.115937588975E+04    0.89302E-03   -0.13036E-05  1571   0.819E-03    0.523E+00
RMM:  89    -0.115937644713E+04   -0.55738E-03   -0.33941E-06  1308   0.377E-03    0.531E+00
RMM:  90    -0.115937638588E+04    0.61250E-04   -0.27461E-06  1223   0.368E-03    0.532E+00
RMM:  91    -0.115937332511E+04    0.30608E-02   -0.88974E-05  1857   0.188E-02    0.512E+00
RMM:  92    -0.115936641064E+04    0.69145E-02   -0.13942E-03  2004   0.622E-02    0.462E+00
RMM:  93    -0.115937226051E+04   -0.58499E-02   -0.47502E-04  1952   0.421E-02    0.469E+00
RMM:  94    -0.115937340063E+04   -0.11401E-02   -0.13152E-04  2190   0.190E-02    0.464E+00
RMM:  95    -0.115937551164E+04   -0.21110E-02   -0.81710E-05  1884   0.201E-02    0.473E+00
RMM:  96    -0.115937643899E+04   -0.92735E-03   -0.17284E-04  1897   0.254E-02    0.478E+00
RMM:  97    -0.115937669514E+04   -0.25615E-03   -0.42717E-04  2034   0.362E-02    0.486E+00
RMM:  98    -0.115937312118E+04    0.35740E-02   -0.30095E-04  2004   0.299E-02    0.456E+00
RMM:  99    -0.115937368697E+04   -0.56579E-03   -0.16889E-04  2061   0.199E-02    0.454E+00
RMM: 100    -0.115937534058E+04   -0.16536E-02   -0.27368E-04  1948   0.237E-02    0.462E+00
RMM: 101    -0.115937663512E+04   -0.12945E-02   -0.33186E-04  1959   0.266E-02    0.480E+00
RMM: 102    -0.115936188820E+04    0.14747E-01   -0.17707E-03  2012   0.700E-02    0.327E+00
RMM: 103    -0.115935551906E+04    0.63691E-02   -0.25693E-03  2060   0.106E-01    0.172E+00
RMM: 104    -0.115936048168E+04   -0.49626E-02   -0.19401E-03  2044   0.910E-02    0.150E+00
RMM: 105    -0.115936137393E+04   -0.89225E-03   -0.75343E-04  2070   0.559E-02    0.148E+00
RMM: 106    -0.115936064269E+04    0.73123E-03   -0.42644E-04  1985   0.368E-02    0.161E+00
RMM: 107    -0.115935219704E+04    0.84457E-02   -0.29799E-03  1992   0.102E-01    0.206E+00
RMM: 108    -0.115935346230E+04   -0.12653E-02   -0.65869E-04  1964   0.470E-02    0.205E+00
RMM: 109    -0.115935095914E+04    0.25032E-02   -0.41481E-04  2120   0.269E-02    0.220E+00
RMM: 110    -0.115936206421E+04   -0.11105E-01   -0.27098E-03  1955   0.105E-01    0.181E+00
RMM: 111    -0.115936502815E+04   -0.29639E-02   -0.20038E-03  1985   0.777E-02    0.181E+00
RMM: 112    -0.115936587185E+04   -0.84370E-03   -0.31168E-03  2038   0.948E-02    0.199E+00
RMM: 113    -0.115936547389E+04    0.39796E-03   -0.14061E-03  2102   0.582E-02    0.191E+00
RMM: 114    -0.115936639441E+04   -0.92052E-03   -0.58392E-04  1945   0.523E-02    0.198E+00
RMM: 115    -0.115936549654E+04    0.89787E-03   -0.95024E-04  1953   0.602E-02    0.212E+00
RMM: 116    -0.115936621653E+04   -0.71999E-03   -0.55762E-04  1992   0.395E-02    0.226E+00
RMM: 117    -0.115936666382E+04   -0.44728E-03   -0.28127E-04  2131   0.236E-02    0.239E+00
RMM: 118    -0.115936703093E+04   -0.36711E-03   -0.96044E-05  2003   0.126E-02    0.248E+00
RMM: 119    -0.115936855265E+04   -0.15217E-02   -0.27120E-04  1893   0.347E-02    0.240E+00
RMM: 120    -0.115936828767E+04    0.26497E-03   -0.84670E-05  1865   0.159E-02
   2 F= -.11683219E+04 E0= -.11682953E+04  d E =-.258916E+01  mag=    29.9404
 trial-energy change:   -2.589158  1 .order   -0.093367   -0.546983    0.360249
 step:   0.9768(harm=  0.6029)  dis= 0.03555  next Energy= -1168.326043 (dE=-0.259E+01)
 bond charge predicted
       N       E                     dE             d eps       ncg     rms          rms(c)
DAV:   1    -0.115937757525E+04   -0.90226E-02   -0.10167E-01  2148   0.608E-01    0.266E+00
RMM:   2    -0.115961256142E+04   -0.23499E+00   -0.25312E-01  2129   0.783E-01    0.767E+00
RMM:   3    -0.115951786652E+04    0.94695E-01   -0.18732E-01  2096   0.796E-01    0.113E+01
RMM:   4    -0.115970562060E+04   -0.18775E+00   -0.75977E-02  2164   0.525E-01    0.158E+01
RMM:   5    -0.115952438676E+04    0.18123E+00   -0.76116E-02  2125   0.566E-01    0.111E+01
RMM:   6    -0.115940100949E+04    0.12338E+00   -0.14066E-01  2161   0.727E-01    0.900E+00
RMM:   7    -0.115934900189E+04    0.52008E-01   -0.32048E-02  2120   0.419E-01    0.584E+00
RMM:   8    -0.115934781600E+04    0.11859E-02   -0.10614E-02  2185   0.221E-01    0.370E+00
RMM:   9    -0.115935473803E+04   -0.69220E-02   -0.12280E-02  2109   0.247E-01    0.185E+00
RMM:  10    -0.115935978342E+04   -0.50454E-02   -0.95710E-03  2100   0.216E-01    0.179E+00
RMM:  11    -0.115935923683E+04    0.54659E-03   -0.47943E-03  2135   0.142E-01    0.163E+00
RMM:  12    -0.115935255102E+04    0.66858E-02   -0.38717E-03  2168   0.126E-01    0.116E+00
RMM:  13    -0.115934496283E+04    0.75882E-02   -0.46523E-03  2185   0.120E-01    0.139E+00
RMM:  14    -0.115933965763E+04    0.53052E-02   -0.44441E-03  2182   0.120E-01    0.179E+00
RMM:  15    -0.115933467274E+04    0.49849E-02   -0.31192E-03  2074   0.115E-01    0.143E+00
RMM:  16    -0.115932949603E+04    0.51767E-02   -0.23859E-03  2180   0.964E-02    0.154E+00
RMM:  17    -0.115932052846E+04    0.89676E-02   -0.26568E-03  2216   0.945E-02    0.175E+00
RMM:  18    -0.115930909544E+04    0.11433E-01   -0.21759E-03  2304   0.734E-02    0.199E+00
RMM:  19    -0.115930498710E+04    0.41083E-02   -0.54478E-04  2346   0.331E-02    0.204E+00
RMM:  20    -0.115930763020E+04   -0.26431E-02   -0.11785E-04  1969   0.191E-02    0.201E+00
RMM:  21    -0.115931580547E+04   -0.81753E-02   -0.43166E-04  2015   0.356E-02    0.186E+00
RMM:  22    -0.115932650562E+04   -0.10700E-01   -0.97870E-04  2226   0.478E-02    0.167E+00
RMM:  23    -0.115934156272E+04   -0.15057E-01   -0.20989E-03  2200   0.661E-02    0.149E+00
RMM:  24    -0.115935224165E+04   -0.10679E-01   -0.27059E-03  2298   0.769E-02    0.126E+00
RMM:  25    -0.115936088359E+04   -0.86419E-02   -0.26881E-03  2353   0.703E-02    0.100E+00
RMM:  26    -0.115936857001E+04   -0.76864E-02   -0.21964E-03  2342   0.616E-02    0.115E+00
RMM:  27    -0.115937367151E+04   -0.51015E-02   -0.13577E-03  2393   0.499E-02    0.163E+00
RMM:  28    -0.115937600178E+04   -0.23303E-02   -0.71699E-04  2301   0.355E-02    0.207E+00
RMM:  29    -0.115936975242E+04    0.62494E-02   -0.59555E-04  1933   0.492E-02    0.143E+00
RMM:  30    -0.115936891038E+04    0.84204E-03   -0.46874E-04  1974   0.358E-02    0.127E+00
RMM:  31    -0.115936794410E+04    0.96628E-03   -0.43698E-04  2210   0.299E-02    0.114E+00
RMM:  32    -0.115936455971E+04    0.33844E-02   -0.98785E-04  2143   0.408E-02    0.110E+00
RMM:  33    -0.115936328449E+04    0.12752E-02   -0.69859E-04  2324   0.324E-02    0.116E+00
RMM:  34    -0.115936088632E+04    0.23982E-02   -0.97824E-04  2236   0.399E-02    0.132E+00
RMM:  35    -0.115935662642E+04    0.42599E-02   -0.14374E-03  2279   0.465E-02    0.156E+00
RMM:  36    -0.115935643229E+04    0.19413E-03   -0.31112E-04  2290   0.217E-02    0.159E+00
RMM:  37    -0.115935756628E+04   -0.11340E-02   -0.57377E-05  1856   0.139E-02    0.154E+00
RMM:  38    -0.115935971074E+04   -0.21445E-02   -0.20917E-04  1948   0.211E-02    0.140E+00
RMM:  39    -0.115936125785E+04   -0.15471E-02   -0.23926E-04  2231   0.194E-02    0.128E+00
RMM:  40    -0.115936361154E+04   -0.23537E-02   -0.34673E-04  2189   0.247E-02    0.115E+00
RMM:  41    -0.115936540192E+04   -0.17904E-02   -0.28202E-04  2261   0.226E-02    0.106E+00
RMM:  42    -0.115936559185E+04   -0.18992E-03   -0.64909E-05  2231   0.117E-02    0.104E+00
RMM:  43    -0.115936625500E+04   -0.66316E-03   -0.95516E-05  2187   0.142E-02    0.994E-01
RMM:  44    -0.115936514403E+04    0.11110E-02   -0.75818E-05  1961   0.155E-02    0.102E+00
RMM:  45    -0.115936481165E+04    0.33237E-03   -0.59136E-05  2122   0.117E-02    0.997E-01
RMM:  46    -0.115936304969E+04    0.17620E-02   -0.11435E-04  1890   0.161E-02    0.106E+00
RMM:  47    -0.115936456351E+04   -0.15138E-02   -0.17854E-04  1881   0.273E-02    0.102E+00
RMM:  48    -0.115936460648E+04   -0.42968E-04   -0.13662E-05  1640   0.836E-03    0.103E+00
RMM:  49    -0.115936448437E+04    0.12211E-03   -0.65255E-06  1544   0.566E-03    0.102E+00
RMM:  50    -0.115936367799E+04    0.80638E-03   -0.38542E-05  1845   0.114E-02    0.103E+00
RMM:  51    -0.115936275916E+04    0.91883E-03   -0.56533E-05  1946   0.124E-02    0.104E+00
RMM:  52    -0.115936201313E+04    0.74604E-03   -0.40635E-05  1900   0.914E-03    0.105E+00
RMM:  53    -0.115936234062E+04   -0.32749E-03   -0.94790E-06  1505   0.675E-03    0.104E+00
RMM:  54    -0.115936386808E+04   -0.15275E-02   -0.78684E-05  1867   0.142E-02    0.971E-01
RMM:  55    -0.115936517981E+04   -0.13117E-02   -0.13564E-04  2103   0.155E-02    0.900E-01
RMM:  56    -0.115936686386E+04   -0.16840E-02   -0.42675E-04  2126   0.280E-02    0.779E-01
RMM:  57    -0.115936596652E+04    0.89733E-03   -0.55587E-05  1905   0.157E-02    0.819E-01
RMM:  58    -0.115936737716E+04   -0.14106E-02   -0.11210E-04  1985   0.148E-02    0.755E-01
RMM:  59    -0.115936842037E+04   -0.10432E-02   -0.91698E-05  2045   0.119E-02    0.716E-01
RMM:  60    -0.115936922453E+04   -0.80415E-03   -0.66504E-05  2005   0.104E-02    0.686E-01
RMM:  61    -0.115937074220E+04   -0.15177E-02   -0.14556E-04  2039   0.167E-02    0.638E-01
RMM:  62    -0.115937396434E+04   -0.32221E-02   -0.84459E-04  2033   0.421E-02    0.623E-01
RMM:  63    -0.115937628611E+04   -0.23218E-02   -0.80595E-04  2256   0.350E-02    0.834E-01
RMM:  64    -0.115937496836E+04    0.13178E-02   -0.19079E-04  1934   0.282E-02    0.741E-01
RMM:  65    -0.115937533197E+04   -0.36361E-03   -0.35367E-05  1688   0.841E-03    0.802E-01
RMM:  66    -0.115937452676E+04    0.80521E-03   -0.28967E-05  1710   0.101E-02    0.730E-01
RMM:  67    -0.115937436889E+04    0.15787E-03   -0.16571E-05  1588   0.649E-03    0.724E-01
RMM:  68    -0.115937470268E+04   -0.33380E-03   -0.67141E-06  1416   0.563E-03    0.741E-01
RMM:  69    -0.115937465912E+04    0.43559E-04   -0.92034E-07  1134   0.218E-03    0.732E-01
RMM:  70    -0.115937465808E+04    0.10465E-05   -0.33088E-07  1063   0.902E-04    0.736E-01
RMM:  71    -0.115937464709E+04    0.10986E-04   -0.84146E-08   991   0.594E-04    0.734E-01
RMM:  72    -0.115937993191E+04   -0.52848E-02   -0.11073E-03  1939   0.503E-02    0.152E+00
RMM:  73    -0.115937942182E+04    0.51009E-03   -0.57699E-04  1965   0.436E-02    0.161E+00
RMM:  74    -0.115937796366E+04    0.14582E-02   -0.11972E-04  1946   0.217E-02    0.163E+00
RMM:  75    -0.115937736200E+04    0.60166E-03   -0.54730E-05  1923   0.130E-02    0.165E+00
RMM:  76    -0.115938292020E+04   -0.55582E-02   -0.42793E-04  1902   0.324E-02    0.273E+00
RMM:  77    -0.115939228095E+04   -0.93607E-02   -0.12174E-03  2030   0.573E-02    0.463E+00
RMM:  78    -0.115938928165E+04    0.29993E-02   -0.18299E-03  2019   0.839E-02    0.530E+00
RMM:  79    -0.115938666760E+04    0.26141E-02   -0.72139E-04  1994   0.512E-02    0.595E+00
RMM:  80    -0.115938985647E+04   -0.31889E-02   -0.56909E-04  2075   0.417E-02    0.672E+00
RMM:  81    -0.115938795587E+04    0.19006E-02   -0.50249E-04  1976   0.395E-02    0.704E+00
RMM:  82    -0.115938950469E+04   -0.15488E-02   -0.30761E-04  2035   0.324E-02    0.748E+00
RMM:  83    -0.115938573059E+04    0.37741E-02   -0.16826E-04  1938   0.294E-02    0.764E+00
RMM:  84    -0.115938436736E+04    0.13632E-02   -0.74200E-05  2120   0.158E-02    0.773E+00
RMM:  85    -0.115938127560E+04    0.30918E-02   -0.25287E-05  1807   0.106E-02    0.768E+00
RMM:  86    -0.115938126314E+04    0.12464E-04   -0.80879E-06  1465   0.544E-03    0.770E+00
RMM:  87    -0.115935959277E+04    0.21670E-01   -0.81359E-04  1936   0.441E-02    0.633E+00
RMM:  88    -0.115935370658E+04    0.58862E-02   -0.13022E-03  2033   0.609E-02    0.488E+00
RMM:  89    -0.115935952924E+04   -0.58227E-02   -0.13975E-03  2035   0.720E-02    0.334E+00
RMM:  90    -0.115936613670E+04   -0.66075E-02   -0.15231E-03  2070   0.768E-02    0.198E+00
RMM:  91    -0.115937329129E+04   -0.71546E-02   -0.13536E-03  2018   0.750E-02    0.153E+00
RMM:  92    -0.115937894721E+04   -0.56559E-02   -0.11731E-03  2079   0.609E-02    0.181E+00
RMM:  93    -0.115937713252E+04    0.18147E-02   -0.25709E-04  2149   0.300E-02    0.142E+00
RMM:  94    -0.115937972439E+04   -0.25919E-02   -0.28953E-04  2163   0.256E-02    0.185E+00
RMM:  95    -0.115937705016E+04    0.26742E-02   -0.14578E-04  1893   0.242E-02    0.141E+00
RMM:  96    -0.115938272187E+04   -0.56717E-02   -0.44877E-04  1928   0.351E-02    0.241E+00
RMM:  97    -0.115939105453E+04   -0.83327E-02   -0.14900E-03  2172   0.571E-02    0.419E+00
RMM:  98    -0.115937706409E+04    0.13990E-01   -0.19958E-03  1987   0.930E-02    0.296E+00
RMM:  99    -0.115937784625E+04   -0.78216E-03   -0.41237E-04  1941   0.400E-02    0.303E+00
RMM: 100    -0.115938336440E+04   -0.55182E-02   -0.12509E-04  1887   0.222E-02    0.357E+00
RMM: 101    -0.115938236709E+04    0.99731E-03   -0.14296E-04  1845   0.214E-02    0.371E+00
RMM: 102    -0.115938026620E+04    0.21009E-02   -0.75654E-05  1896   0.167E-02    0.371E+00
RMM: 103    -0.115937989707E+04    0.36913E-03   -0.16007E-05  1628   0.804E-03    0.371E+00
RMM: 104    -0.115938001248E+04   -0.11541E-03   -0.74558E-06  1551   0.518E-03    0.374E+00
RMM: 105    -0.115937965807E+04    0.35441E-03   -0.48915E-06  1358   0.393E-03    0.371E+00
RMM: 106    -0.115937776211E+04    0.18960E-02   -0.52201E-05  2014   0.993E-03    0.342E+00
RMM: 107    -0.115936606415E+04    0.11698E-01   -0.54170E-03  2145   0.109E-01    0.995E-01
RMM: 108    -0.115937520194E+04   -0.91378E-02   -0.34696E-03  2060   0.114E-01    0.119E+00
RMM: 109    -0.115937459025E+04    0.61169E-03   -0.11187E-03  2333   0.476E-02    0.799E-01
RMM: 110    -0.115937477952E+04   -0.18927E-03   -0.33045E-04  2196   0.284E-02    0.849E-01
RMM: 111    -0.115937291871E+04    0.18608E-02   -0.61310E-04  2164   0.307E-02    0.829E-01
RMM: 112    -0.115937193968E+04    0.97903E-03   -0.43235E-04  2120   0.274E-02    0.892E-01
RMM: 113    -0.115937078951E+04    0.11502E-02   -0.46899E-04  2256   0.267E-02    0.962E-01
RMM: 114    -0.115936951938E+04    0.12701E-02   -0.36097E-04  2255   0.237E-02    0.104E+00
RMM: 115    -0.115936771310E+04    0.18063E-02   -0.53191E-04  2229   0.280E-02    0.117E+00
RMM: 116    -0.115936625440E+04    0.14587E-02   -0.37254E-04  2310   0.234E-02    0.127E+00
RMM: 117    -0.115936536469E+04    0.88971E-03   -0.20106E-04  2258   0.159E-02    0.134E+00
RMM: 118    -0.115936540918E+04   -0.44489E-04   -0.30976E-05  1740   0.866E-03    0.134E+00
RMM: 119    -0.115936524048E+04    0.16870E-03   -0.15216E-05  1545   0.526E-03    0.136E+00
RMM: 120    -0.115936491246E+04    0.32802E-03   -0.12153E-05  1522   0.503E-03
   3 F= -.11683182E+04 E0= -.11683009E+04  d E =-.258547E+01  mag=    30.3661
 curvature:  -0.03 expect dE=-0.581E-01 dE for cont linesearch -0.574E-02
 ZBRENT: interpolating
 opt :   0.6286  next Energy= -1168.370957 (dE=-0.264E+01)
 bond charge predicted
       N       E                     dE             d eps       ncg     rms          rms(c)
DAV:   1    -0.115937426330E+04   -0.90228E-02   -0.22456E+01  1992   0.904E+00    0.248E+00
RMM:   2    -0.115954654098E+04   -0.17228E+00   -0.53314E-01  2155   0.162E+00    0.609E+00
RMM:   3    -0.115944509173E+04    0.10145E+00   -0.10805E-01  2511   0.638E-01    0.292E+00
RMM:   4    -0.115958809069E+04   -0.14300E+00   -0.93770E-02  2282   0.603E-01    0.973E+00
RMM:   5    -0.115946674715E+04    0.12134E+00   -0.54097E-02  2214   0.496E-01    0.557E+00
RMM:   6    -0.115945164356E+04    0.15104E-01   -0.48692E-02  2218   0.478E-01    0.618E+00
RMM:   7    -0.115944665310E+04    0.49905E-02   -0.10633E-02  2385   0.191E-01    0.572E+00
RMM:   8    -0.115946184856E+04   -0.15195E-01   -0.14054E-02  2221   0.232E-01    0.886E+00
RMM:   9    -0.115953680190E+04   -0.74953E-01   -0.44018E-02  2098   0.419E-01    0.110E+01
RMM:  10    -0.115944808096E+04    0.88721E-01   -0.20179E-02  2124   0.318E-01    0.967E+00
RMM:  11    -0.115942780081E+04    0.20280E-01   -0.71727E-03  2340   0.165E-01    0.893E+00
RMM:  12    -0.115942268800E+04    0.51128E-02   -0.56577E-03  2210   0.147E-01    0.780E+00
RMM:  13    -0.115942320113E+04   -0.51314E-03   -0.11084E-02  2180   0.209E-01    0.690E+00
RMM:  14    -0.115941054676E+04    0.12654E-01   -0.58674E-03  2286   0.151E-01    0.446E+00
RMM:  15    -0.115941022859E+04    0.31817E-03   -0.20520E-02  2136   0.280E-01    0.251E+00
RMM:  16    -0.115941158023E+04   -0.13516E-02   -0.15341E-02  2251   0.241E-01    0.239E+00
RMM:  17    -0.115940284845E+04    0.87318E-02   -0.73481E-03  2368   0.141E-01    0.261E+00
RMM:  18    -0.115939545042E+04    0.73980E-02   -0.21519E-03  2445   0.705E-02    0.274E+00
RMM:  19    -0.115940507378E+04   -0.96234E-02   -0.76946E-04  2043   0.540E-02    0.257E+00
RMM:  20    -0.115943600589E+04   -0.30932E-01   -0.20315E-02  2090   0.226E-01    0.186E+00
RMM:  21    -0.115944723605E+04   -0.11230E-01   -0.16191E-02  2344   0.198E-01    0.350E+00
RMM:  22    -0.115947340211E+04   -0.26166E-01   -0.10751E-02  2356   0.174E-01    0.742E+00
RMM:  23    -0.115947507462E+04   -0.16725E-02   -0.90267E-03  2115   0.177E-01    0.840E+00
RMM:  24    -0.115947572507E+04   -0.65045E-03   -0.68042E-03  2292   0.111E-01    0.874E+00
RMM:  25    -0.115946666983E+04    0.90552E-02   -0.13786E-03  2150   0.706E-02    0.863E+00
RMM:  26    -0.115946524864E+04    0.14212E-02   -0.38810E-04  2079   0.394E-02    0.874E+00
RMM:  27    -0.115946460109E+04    0.64755E-03   -0.95679E-05  2067   0.170E-02    0.876E+00
RMM:  28    -0.115946458885E+04    0.12245E-04   -0.44730E-04  2075   0.424E-02    0.883E+00
RMM:  29    -0.115945984635E+04    0.47425E-02   -0.15470E-03  2214   0.800E-02    0.896E+00
RMM:  30    -0.115941064895E+04    0.49197E-01   -0.60342E-03  2141   0.128E-01    0.680E+00
RMM:  31    -0.115939648437E+04    0.14165E-01   -0.62488E-03  2214   0.136E-01    0.362E+00
RMM:  32    -0.115942218360E+04   -0.25699E-01   -0.84840E-03  2145   0.169E-01    0.237E+00
RMM:  33    -0.115943114112E+04   -0.89575E-02   -0.66023E-03  2235   0.134E-01    0.188E+00
RMM:  34    -0.115942946621E+04    0.16749E-02   -0.48666E-03  2309   0.936E-02    0.193E+00
RMM:  35    -0.115942964047E+04   -0.17426E-03   -0.19219E-03  2469   0.599E-02    0.225E+00
RMM:  36    -0.115943051832E+04   -0.87785E-03   -0.72522E-04  2381   0.320E-02    0.239E+00
RMM:  37    -0.115943099527E+04   -0.47696E-03   -0.10846E-04  2031   0.211E-02    0.236E+00
RMM:  38    -0.115942945068E+04    0.15446E-02   -0.12366E-03  2154   0.495E-02    0.274E+00
RMM:  39    -0.115942820247E+04    0.12482E-02   -0.84017E-04  2332   0.354E-02    0.294E+00
RMM:  40    -0.115943018355E+04   -0.19811E-02   -0.32126E-04  1918   0.333E-02    0.277E+00
RMM:  41    -0.115943150132E+04   -0.13178E-02   -0.20546E-04  2100   0.193E-02    0.268E+00
RMM:  42    -0.115943237783E+04   -0.87651E-03   -0.18942E-04  2235   0.181E-02    0.257E+00
RMM:  43    -0.115943383914E+04   -0.14613E-02   -0.44868E-04  2279   0.280E-02    0.240E+00
RMM:  44    -0.115943643559E+04   -0.25964E-02   -0.10863E-03  2362   0.422E-02    0.219E+00
RMM:  45    -0.115943876708E+04   -0.23315E-02   -0.78211E-04  2378   0.340E-02    0.210E+00
RMM:  46    -0.115943908962E+04   -0.32254E-03   -0.12568E-04  2066   0.226E-02    0.208E+00
RMM:  47    -0.115943601829E+04    0.30713E-02   -0.48107E-04  1982   0.370E-02    0.217E+00
RMM:  48    -0.115943530270E+04    0.71559E-03   -0.19579E-04  2207   0.221E-02    0.223E+00
RMM:  49    -0.115943331097E+04    0.19917E-02   -0.16952E-04  2235   0.177E-02    0.227E+00
RMM:  50    -0.115942663953E+04    0.66714E-02   -0.13072E-03  2050   0.485E-02    0.250E+00
RMM:  51    -0.115942645583E+04    0.18370E-03   -0.24993E-04  2114   0.233E-02    0.251E+00
RMM:  52    -0.115942962763E+04   -0.31718E-02   -0.29086E-04  1910   0.302E-02    0.241E+00
RMM:  53    -0.115943207712E+04   -0.24495E-02   -0.26189E-04  2014   0.240E-02    0.230E+00
RMM:  54    -0.115944052799E+04   -0.84509E-02   -0.25354E-03  2145   0.702E-02    0.218E+00
RMM:  55    -0.115946211327E+04   -0.21585E-01   -0.87156E-03  2239   0.123E-01    0.505E+00
RMM:  56    -0.115945981422E+04    0.22991E-02   -0.54771E-03  2079   0.132E-01    0.533E+00
RMM:  57    -0.115945765669E+04    0.21575E-02   -0.12994E-03  2186   0.562E-02    0.630E+00
RMM:  58    -0.115945376692E+04    0.38898E-02   -0.70596E-04  1993   0.542E-02    0.671E+00
RMM:  59    -0.115945016287E+04    0.36041E-02   -0.28548E-04  1979   0.333E-02    0.702E+00
RMM:  60    -0.115944806546E+04    0.20974E-02   -0.13917E-04  1980   0.234E-02    0.723E+00
RMM:  61    -0.115944386468E+04    0.42008E-02   -0.10701E-04  1982   0.195E-02    0.716E+00
RMM:  62    -0.115943163775E+04    0.12227E-01   -0.66663E-04  2119   0.374E-02    0.604E+00
RMM:  63    -0.115944306527E+04   -0.11428E-01   -0.98873E-04  2014   0.631E-02    0.645E+00
RMM:  64    -0.115944750618E+04   -0.44409E-02   -0.37394E-04  2005   0.399E-02    0.645E+00
RMM:  65    -0.115944750122E+04    0.49597E-05   -0.11100E-04  2085   0.220E-02    0.656E+00
RMM:  66    -0.115944204752E+04    0.54537E-02   -0.17470E-04  1921   0.259E-02    0.619E+00
RMM:  67    -0.115948508496E+04   -0.43037E-01   -0.43014E-03  2061   0.102E-01    0.904E+00
RMM:  68    -0.115947290394E+04    0.12181E-01   -0.34992E-03  2045   0.113E-01    0.888E+00
RMM:  69    -0.115946014756E+04    0.12756E-01   -0.53294E-04  2143   0.428E-02    0.898E+00
RMM:  70    -0.115943217928E+04    0.27968E-01   -0.98511E-04  2129   0.553E-02    0.760E+00
RMM:  71    -0.115941744831E+04    0.14731E-01   -0.21790E-03  2059   0.746E-02    0.541E+00
RMM:  72    -0.115940303086E+04    0.14417E-01   -0.17926E-02  2154   0.181E-01    0.251E+00
RMM:  73    -0.115943701804E+04   -0.33987E-01   -0.92386E-03  2045   0.193E-01    0.254E+00
RMM:  74    -0.115943421987E+04    0.27982E-02   -0.19514E-03  2104   0.649E-02    0.209E+00
RMM:  75    -0.115943685229E+04   -0.26324E-02   -0.56958E-04  2231   0.394E-02    0.214E+00
RMM:  76    -0.115943660688E+04    0.24541E-03   -0.16324E-04  2059   0.200E-02    0.205E+00
RMM:  77    -0.115944083420E+04   -0.42273E-02   -0.12294E-03  2072   0.535E-02    0.189E+00
RMM:  78    -0.115943915420E+04    0.16800E-02   -0.26435E-04  2121   0.336E-02    0.180E+00
RMM:  79    -0.115943915830E+04   -0.41024E-05   -0.56438E-05  2073   0.145E-02    0.181E+00
RMM:  80    -0.115943912166E+04    0.36643E-04   -0.13109E-05  1647   0.722E-03    0.180E+00
RMM:  81    -0.115943887710E+04    0.24456E-03   -0.41530E-06  1318   0.439E-03    0.181E+00
RMM:  82    -0.115944089231E+04   -0.20152E-02   -0.13314E-04  1898   0.183E-02    0.183E+00
RMM:  83    -0.115944070684E+04    0.18547E-03   -0.20131E-05  1639   0.827E-03    0.182E+00
RMM:  84    -0.115944177155E+04   -0.10647E-02   -0.53350E-05  1890   0.105E-02    0.184E+00
RMM:  85    -0.115944254528E+04   -0.77373E-03   -0.50838E-05  1851   0.113E-02    0.184E+00
RMM:  86    -0.115944322985E+04   -0.68457E-03   -0.43209E-05  1882   0.859E-03    0.187E+00
RMM:  87    -0.115944232878E+04    0.90107E-03   -0.15288E-04  2160   0.219E-02    0.191E+00
RMM:  88    -0.115944402816E+04   -0.16994E-02   -0.14920E-04  1978   0.266E-02    0.200E+00
RMM:  89    -0.115944381699E+04    0.21117E-03   -0.32804E-05  1862   0.107E-02    0.199E+00
RMM:  90    -0.115944424876E+04   -0.43177E-03   -0.20051E-05  1693   0.736E-03    0.201E+00
RMM:  91    -0.115944365964E+04    0.58912E-03   -0.15580E-05  1694   0.719E-03    0.192E+00
RMM:  92    -0.115943371140E+04    0.99482E-02   -0.22596E-03  2012   0.711E-02    0.179E+00
RMM:  93    -0.115943257052E+04    0.11409E-02   -0.74485E-04  2141   0.360E-02    0.185E+00
RMM:  94    -0.115943542669E+04   -0.28562E-02   -0.14436E-04  1908   0.232E-02    0.179E+00
RMM:  95    -0.115943618402E+04   -0.75732E-03   -0.38432E-05  1857   0.105E-02    0.176E+00
RMM:  96    -0.115943713806E+04   -0.95405E-03   -0.37381E-05  1830   0.910E-03    0.173E+00
RMM:  97    -0.115944481992E+04   -0.76819E-02   -0.22210E-03  2058   0.670E-02    0.181E+00
RMM:  98    -0.115944629186E+04   -0.14719E-02   -0.63156E-04  2214   0.341E-02    0.195E+00
RMM:  99    -0.115945257836E+04   -0.62865E-02   -0.12239E-03  2340   0.453E-02    0.301E+00
RMM: 100    -0.115944753872E+04    0.50396E-02   -0.77630E-04  1979   0.584E-02    0.273E+00
RMM: 101    -0.115944632574E+04    0.12130E-02   -0.11733E-04  2001   0.205E-02    0.281E+00
RMM: 102    -0.115944696339E+04   -0.63765E-03   -0.14953E-04  1984   0.209E-02    0.270E+00
RMM: 103    -0.115944541885E+04    0.15445E-02   -0.12711E-04  1904   0.236E-02    0.246E+00
RMM: 104    -0.115945070220E+04   -0.52834E-02   -0.22698E-04  1961   0.266E-02    0.315E+00
RMM: 105    -0.115945047429E+04    0.22791E-03   -0.19983E-04  1944   0.268E-02    0.337E+00
RMM: 106    -0.115945064243E+04   -0.16814E-03   -0.90951E-05  1928   0.180E-02    0.373E+00
RMM: 107    -0.115948216932E+04   -0.31527E-01   -0.35995E-03  2090   0.856E-02    0.741E+00
RMM: 108    -0.115947277686E+04    0.93925E-02   -0.53836E-03  2066   0.143E-01    0.774E+00
RMM: 109    -0.115946586193E+04    0.69149E-02   -0.12560E-03  2074   0.640E-02    0.840E+00
RMM: 110    -0.115946176013E+04    0.41018E-02   -0.40919E-04  2055   0.437E-02    0.865E+00
RMM: 111    -0.115945481370E+04    0.69464E-02   -0.18568E-04  2088   0.237E-02    0.857E+00
RMM: 112    -0.115948365204E+04   -0.28838E-01   -0.13589E-03  1994   0.580E-02    0.971E+00
RMM: 113    -0.115947749990E+04    0.61521E-02   -0.72345E-04  2034   0.553E-02    0.955E+00
RMM: 114    -0.115948113639E+04   -0.36365E-02   -0.23379E-04  2179   0.275E-02    0.100E+01
RMM: 115    -0.115947513593E+04    0.60005E-02   -0.15021E-04  1922   0.289E-02    0.990E+00
RMM: 116    -0.115947551595E+04   -0.38002E-03   -0.42351E-05  1878   0.153E-02    0.101E+01
RMM: 117    -0.115946995349E+04    0.55625E-02   -0.10262E-04  1965   0.210E-02    0.992E+00
RMM: 118    -0.115948429486E+04   -0.14341E-01   -0.21404E-04  1915   0.288E-02    0.105E+01
RMM: 119    -0.115947970777E+04    0.45871E-02   -0.22445E-04  1943   0.323E-02    0.103E+01
RMM: 120    -0.115947959991E+04    0.10787E-03   -0.53013E-05  1874   0.140E-02
   4 F= -.11684283E+04 E0= -.11684035E+04  d E =-.269557E+01  mag=    30.0872
 curvature:  -0.31 expect dE=-0.242E+00 dE for cont linesearch -0.446E-02
 trial: gam= 1.56734 g(F)=  0.740E+00 g(S)=  0.290E-01 ort =-0.881E-01 (trialstep = 0.276E+00)
 search vector abs. value=  0.184E+01
 bond charge predicted
       N       E                     dE             d eps       ncg     rms          rms(c)
DAV:   1    -0.115947940905E+04    0.29872E-03   -0.46876E+01  1992   0.118E+01    0.119E+01
RMM:   2    -0.118212376119E+04   -0.22644E+02   -0.27452E+01  2061   0.105E+01    0.683E+01
RMM:   3    -0.116966744119E+04    0.12456E+02   -0.60331E+00  2040   0.628E+00    0.445E+01
RMM:   4    -0.116370971503E+04    0.59577E+01   -0.27425E+00  2048   0.389E+00    0.351E+01
RMM:   5    -0.116233176712E+04    0.13779E+01   -0.18367E+00  2163   0.255E+00    0.341E+01
RMM:   6    -0.115938857617E+04    0.29432E+01   -0.15874E+00  2210   0.215E+00    0.113E+01
RMM:   7    -0.115971162073E+04   -0.32304E+00   -0.65679E-01  2170   0.155E+00    0.136E+01
RMM:   8    -0.115966611600E+04    0.45505E-01   -0.18521E-01  2253   0.916E-01    0.120E+01
RMM:   9    -0.115962803091E+04    0.38085E-01   -0.73530E-02  2166   0.588E-01    0.121E+01
RMM:  10    -0.115959242214E+04    0.35609E-01   -0.23898E-02  2238   0.336E-01    0.113E+01
RMM:  11    -0.115958343349E+04    0.89886E-02   -0.65451E-03  2241   0.161E-01    0.113E+01
RMM:  12    -0.115959858353E+04   -0.15150E-01   -0.23593E-02  2109   0.302E-01    0.992E+00
RMM:  13    -0.115953211735E+04    0.66466E-01   -0.50743E-02  2088   0.486E-01    0.588E+00
RMM:  14    -0.115956801175E+04   -0.35894E-01   -0.62670E-02  2122   0.545E-01    0.602E+00
RMM:  15    -0.115956804888E+04   -0.37136E-04   -0.38710E-02  2122   0.424E-01    0.466E+00
RMM:  16    -0.115956440218E+04    0.36467E-02   -0.34500E-02  2181   0.366E-01    0.358E+00
RMM:  17    -0.115955505451E+04    0.93477E-02   -0.32670E-02  2226   0.363E-01    0.182E+00
RMM:  18    -0.115956549247E+04   -0.10438E-01   -0.19433E-02  2150   0.305E-01    0.198E+00
RMM:  19    -0.115956306897E+04    0.24235E-02   -0.12556E-02  2203   0.228E-01    0.180E+00
RMM:  20    -0.115955764243E+04    0.54265E-02   -0.10449E-02  2198   0.198E-01    0.131E+00
RMM:  21    -0.115955529541E+04    0.23470E-02   -0.81890E-03  2212   0.180E-01    0.164E+00
RMM:  22    -0.115955238953E+04    0.29059E-02   -0.33634E-03  2278   0.120E-01    0.133E+00
RMM:  23    -0.115954986330E+04    0.25262E-02   -0.23649E-03  2219   0.910E-02    0.135E+00
RMM:  24    -0.115954674437E+04    0.31189E-02   -0.24820E-03  2261   0.934E-02    0.156E+00
RMM:  25    -0.115954168923E+04    0.50551E-02   -0.20738E-03  2275   0.894E-02    0.150E+00
RMM:  26    -0.115953318089E+04    0.85083E-02   -0.19215E-03  2230   0.771E-02    0.164E+00
RMM:  27    -0.115952658535E+04    0.65955E-02   -0.22599E-03  2322   0.754E-02    0.193E+00
RMM:  28    -0.115952031839E+04    0.62670E-02   -0.15758E-03  2317   0.656E-02    0.211E+00
RMM:  29    -0.115951651359E+04    0.38048E-02   -0.50335E-04  2403   0.284E-02    0.217E+00
RMM:  30    -0.115951931916E+04   -0.28056E-02   -0.14898E-04  1918   0.244E-02    0.206E+00
RMM:  31    -0.115952548057E+04   -0.61614E-02   -0.64422E-04  2111   0.396E-02    0.180E+00
RMM:  32    -0.115953784707E+04   -0.12366E-01   -0.29220E-03  2155   0.795E-02    0.130E+00
RMM:  33    -0.115954888727E+04   -0.11040E-01   -0.35920E-03  2363   0.851E-02    0.116E+00
RMM:  34    -0.115955595213E+04   -0.70649E-02   -0.25683E-03  2425   0.661E-02    0.129E+00
RMM:  35    -0.115955621820E+04   -0.26607E-03   -0.55047E-04  2124   0.454E-02    0.123E+00
RMM:  36    -0.115955622634E+04   -0.81404E-05   -0.14655E-04  2223   0.206E-02    0.129E+00
RMM:  37    -0.115955803048E+04   -0.18041E-02   -0.21772E-04  2166   0.213E-02    0.138E+00
RMM:  38    -0.115955700146E+04    0.10290E-02   -0.67281E-05  1902   0.183E-02    0.132E+00
RMM:  39    -0.115955544259E+04    0.15589E-02   -0.31376E-04  2023   0.268E-02    0.123E+00
RMM:  40    -0.115955000003E+04    0.54426E-02   -0.27214E-03  2170   0.717E-02    0.120E+00
RMM:  41    -0.115954723325E+04    0.27668E-02   -0.17669E-03  2317   0.550E-02    0.132E+00
RMM:  42    -0.115954993646E+04   -0.27032E-02   -0.21201E-04  2026   0.291E-02    0.126E+00
RMM:  43    -0.115954696238E+04    0.29741E-02   -0.33734E-04  2181   0.263E-02    0.135E+00
RMM:  44    -0.115955164039E+04   -0.46780E-02   -0.67381E-04  1975   0.423E-02    0.121E+00
RMM:  45    -0.115955789017E+04   -0.62498E-02   -0.26255E-03  2340   0.731E-02    0.161E+00
RMM:  46    -0.115955804375E+04   -0.15358E-03   -0.67359E-04  2200   0.396E-02    0.165E+00
RMM:  47    -0.115955603278E+04    0.20110E-02   -0.80276E-04  2143   0.445E-02    0.103E+00
RMM:  48    -0.115956264746E+04   -0.66147E-02   -0.20040E-03  2113   0.749E-02    0.154E+00
RMM:  49    -0.115955612322E+04    0.65242E-02   -0.17870E-03  2036   0.762E-02    0.101E+00
RMM:  50    -0.115955516209E+04    0.96113E-03   -0.10838E-03  2165   0.459E-02    0.123E+00
RMM:  51    -0.115954804143E+04    0.71207E-02   -0.37243E-03  2271   0.785E-02    0.145E+00
RMM:  52    -0.115954595978E+04    0.20816E-02   -0.16728E-03  2355   0.491E-02    0.163E+00
RMM:  53    -0.115954052695E+04    0.54328E-02   -0.15938E-03  2369   0.521E-02    0.182E+00
RMM:  54    -0.115954610808E+04   -0.55811E-02   -0.54668E-04  1984   0.430E-02    0.163E+00
RMM:  55    -0.115955230358E+04   -0.61955E-02   -0.20258E-03  2232   0.640E-02    0.128E+00
RMM:  56    -0.115956793852E+04   -0.15635E-01   -0.16115E-02  2229   0.174E-01    0.284E+00
RMM:  57    -0.115958073200E+04   -0.12793E-01   -0.77615E-03  2360   0.123E-01    0.504E+00
RMM:  58    -0.115957760646E+04    0.31255E-02   -0.41170E-03  2104   0.116E-01    0.590E+00
RMM:  59    -0.115958979296E+04   -0.12186E-01   -0.27173E-03  2282   0.748E-02    0.760E+00
RMM:  60    -0.115958683383E+04    0.29591E-02   -0.17219E-03  2050   0.807E-02    0.800E+00
RMM:  61    -0.115958266142E+04    0.41724E-02   -0.58378E-04  2126   0.421E-02    0.823E+00
RMM:  62    -0.115957181668E+04    0.10845E-01   -0.20201E-04  2001   0.288E-02    0.805E+00
RMM:  63    -0.115956452781E+04    0.72889E-02   -0.21858E-04  2115   0.225E-02    0.784E+00
RMM:  64    -0.115956514073E+04   -0.61293E-03   -0.62499E-05  1934   0.133E-02    0.781E+00
RMM:  65    -0.115956788832E+04   -0.27476E-02   -0.13585E-05  1653   0.732E-03    0.786E+00
RMM:  66    -0.115956210960E+04    0.57787E-02   -0.49645E-05  1926   0.117E-02    0.760E+00
RMM:  67    -0.115956938572E+04   -0.72761E-02   -0.10545E-04  1865   0.191E-02    0.784E+00
RMM:  68    -0.115956850902E+04    0.87670E-03   -0.36961E-05  1678   0.115E-02    0.777E+00
RMM:  69    -0.115956347388E+04    0.50351E-02   -0.56095E-05  1834   0.127E-02    0.759E+00
RMM:  70    -0.115957086314E+04   -0.73893E-02   -0.61806E-05  1831   0.150E-02    0.789E+00
RMM:  71    -0.115956966033E+04    0.12028E-02   -0.26942E-05  1619   0.974E-03    0.786E+00
RMM:  72    -0.115958017607E+04   -0.10516E-01   -0.27098E-04  2071   0.254E-02    0.824E+00
RMM:  73    -0.115956853889E+04    0.11637E-01   -0.15490E-04  1883   0.254E-02    0.790E+00
RMM:  74    -0.115955931968E+04    0.92192E-02   -0.19116E-04  2044   0.215E-02    0.752E+00
RMM:  75    -0.115954839975E+04    0.10920E-01   -0.61118E-04  2061   0.359E-02    0.652E+00
RMM:  76    -0.115955265493E+04   -0.42552E-02   -0.55125E-04  1948   0.448E-02    0.622E+00
RMM:  77    -0.115956294248E+04   -0.10288E-01   -0.23491E-04  1956   0.306E-02    0.652E+00
RMM:  78    -0.115955234917E+04    0.10593E-01   -0.24759E-04  1902   0.276E-02    0.548E+00
RMM:  79    -0.115953616841E+04    0.16181E-01   -0.38736E-03  2184   0.881E-02    0.211E+00
RMM:  80    -0.115955152348E+04   -0.15355E-01   -0.61369E-03  2103   0.139E-01    0.132E+00
RMM:  81    -0.115955768871E+04   -0.61652E-02   -0.21452E-03  2133   0.777E-02    0.100E+00
RMM:  82    -0.115955985979E+04   -0.21711E-02   -0.49552E-04  2118   0.416E-02    0.987E-01
RMM:  83    -0.115955983053E+04    0.29257E-04   -0.12355E-04  2185   0.176E-02    0.932E-01
RMM:  84    -0.115956006373E+04   -0.23320E-03   -0.39890E-05  1963   0.119E-02    0.930E-01
RMM:  85    -0.115955850832E+04    0.15554E-02   -0.25667E-04  2069   0.238E-02    0.898E-01
RMM:  86    -0.115955684830E+04    0.16600E-02   -0.47492E-04  2277   0.282E-02    0.972E-01
RMM:  87    -0.115955550016E+04    0.13481E-02   -0.39112E-04  2362   0.222E-02    0.105E+00
RMM:  88    -0.115955470600E+04    0.79417E-03   -0.14527E-04  2254   0.135E-02    0.109E+00
RMM:  89    -0.115955486174E+04   -0.15575E-03   -0.20592E-05  1567   0.607E-03    0.109E+00
RMM:  90    -0.115955375194E+04    0.11098E-02   -0.83751E-05  2054   0.121E-02    0.114E+00
RMM:  91    -0.115955481945E+04   -0.10675E-02   -0.41690E-05  1802   0.114E-02    0.109E+00
RMM:  92    -0.115955593730E+04   -0.11179E-02   -0.11512E-04  2061   0.147E-02    0.103E+00
RMM:  93    -0.115955592172E+04    0.15584E-04   -0.15362E-05  1565   0.589E-03    0.103E+00
RMM:  94    -0.115955590584E+04    0.15877E-04   -0.19750E-06  1212   0.274E-03    0.103E+00
RMM:  95    -0.115955591486E+04   -0.90211E-05   -0.61829E-07  1107   0.172E-03    0.103E+00
RMM:  96    -0.115955589185E+04    0.23015E-04   -0.24108E-07  1065   0.113E-03    0.103E+00
RMM:  97    -0.115955342797E+04    0.24639E-02   -0.30987E-04  1911   0.254E-02    0.115E+00
RMM:  98    -0.115955378403E+04   -0.35607E-03   -0.28028E-05  1749   0.872E-03    0.114E+00
RMM:  99    -0.115955380355E+04   -0.19513E-04   -0.42387E-06  1272   0.301E-03    0.114E+00
RMM: 100    -0.115955386772E+04   -0.64176E-04   -0.83957E-07  1160   0.201E-03    0.113E+00
RMM: 101    -0.115955391459E+04   -0.46871E-04   -0.38455E-07  1087   0.121E-03    0.113E+00
RMM: 102    -0.115955768542E+04   -0.37708E-02   -0.13454E-03  2065   0.547E-02    0.873E-01
RMM: 103    -0.115956035016E+04   -0.26647E-02   -0.14562E-03  2290   0.499E-02    0.826E-01
RMM: 104    -0.115956017684E+04    0.17332E-03   -0.26007E-04  2341   0.212E-02    0.755E-01
RMM: 105    -0.115956132976E+04   -0.11529E-02   -0.33980E-04  2256   0.225E-02    0.794E-01
RMM: 106    -0.115956189430E+04   -0.56454E-03   -0.17042E-04  2279   0.159E-02    0.821E-01
RMM: 107    -0.115956638541E+04   -0.44911E-02   -0.15376E-03  2170   0.525E-02    0.176E+00
RMM: 108    -0.115957174973E+04   -0.53643E-02   -0.18195E-03  2179   0.618E-02    0.314E+00
RMM: 109    -0.115958097723E+04   -0.92275E-02   -0.22033E-03  2122   0.754E-02    0.518E+00
RMM: 110    -0.115958424226E+04   -0.32650E-02   -0.25732E-03  2057   0.949E-02    0.652E+00
RMM: 111    -0.115957270187E+04    0.11540E-01   -0.15353E-03  2035   0.786E-02    0.668E+00
RMM: 112    -0.115952876914E+04    0.43933E-01   -0.12049E-02  2129   0.163E-01    0.155E+00
RMM: 113    -0.115955341404E+04   -0.24645E-01   -0.11459E-02  2079   0.198E-01    0.140E+00
RMM: 114    -0.115955777784E+04   -0.43638E-02   -0.20148E-03  2301   0.708E-02    0.967E-01
RMM: 115    -0.115955708865E+04    0.68919E-03   -0.75503E-04  2188   0.452E-02    0.887E-01
RMM: 116    -0.115955849244E+04   -0.14038E-02   -0.17803E-04  2013   0.246E-02    0.852E-01
RMM: 117    -0.115955406303E+04    0.44294E-02   -0.13746E-03  2099   0.527E-02    0.102E+00
RMM: 118    -0.115955453396E+04   -0.47093E-03   -0.20544E-04  2125   0.200E-02    0.102E+00
RMM: 119    -0.115955473744E+04   -0.20349E-03   -0.27814E-05  1776   0.727E-03    0.101E+00
RMM: 120    -0.115955474563E+04   -0.81886E-05   -0.66466E-06  1360   0.362E-03
   5 F= -.11685043E+04 E0= -.11684860E+04  d E =-.760394E-01  mag=    30.2820
 trial-energy change:   -0.076039  1 .order   -0.120436   -0.173983   -0.066889
 step:   0.4479(harm=  0.4479)  dis= 0.03110  next Energy= -1168.569632 (dE=-0.141E+00)
 bond charge predicted
       N       E                     dE             d eps       ncg     rms          rms(c)
DAV:   1    -0.115952798166E+04    0.26756E-01   -0.18492E+01  1992   0.739E+00    0.184E+00
RMM:   2    -0.115980894265E+04   -0.28096E+00   -0.49618E-01  2227   0.146E+00    0.912E+00
RMM:   3    -0.115958367150E+04    0.22527E+00   -0.11301E-01  2368   0.702E-01    0.367E+00
RMM:   4    -0.115959366555E+04   -0.99941E-02   -0.51873E-02  2359   0.452E-01    0.473E+00
RMM:   5    -0.115959122384E+04    0.24417E-02   -0.28308E-02  2211   0.340E-01    0.394E+00
RMM:   6    -0.115958192275E+04    0.93011E-02   -0.17888E-02  2179   0.294E-01    0.341E+00
RMM:   7    -0.115958215942E+04   -0.23666E-03   -0.91904E-03  2260   0.202E-01    0.339E+00
RMM:   8    -0.115957950481E+04    0.26546E-02   -0.18240E-02  2210   0.273E-01    0.394E+00
RMM:   9    -0.115955329161E+04    0.26213E-01   -0.17108E-02  2248   0.279E-01    0.178E+00
RMM:  10    -0.115955473515E+04   -0.14435E-02   -0.49122E-03  2186   0.152E-01    0.180E+00
RMM:  11    -0.115955540434E+04   -0.66919E-03   -0.54608E-03  2190   0.154E-01    0.221E+00
RMM:  12    -0.115954410879E+04    0.11296E-01   -0.63697E-03  2145   0.171E-01    0.186E+00
RMM:  13    -0.115954230898E+04    0.17998E-02   -0.15593E-03  2295   0.764E-02    0.193E+00
RMM:  14    -0.115954994573E+04   -0.76367E-02   -0.46527E-03  2095   0.135E-01    0.255E+00
RMM:  15    -0.115955118008E+04   -0.12344E-02   -0.11837E-03  2216   0.711E-02    0.290E+00
RMM:  16    -0.115955622851E+04   -0.50484E-02   -0.29348E-03  2087   0.113E-01    0.547E+00
RMM:  17    -0.115955281474E+04    0.34138E-02   -0.38042E-03  2057   0.127E-01    0.545E+00
RMM:  18    -0.115954635552E+04    0.64592E-02   -0.97314E-04  2267   0.561E-02    0.503E+00
RMM:  19    -0.115954576683E+04    0.58870E-03   -0.15152E-03  2241   0.708E-02    0.348E+00
RMM:  20    -0.115955167510E+04   -0.59083E-02   -0.39921E-03  2157   0.124E-01    0.149E+00
RMM:  21    -0.115956227804E+04   -0.10603E-01   -0.45165E-03  2164   0.136E-01    0.684E-01
RMM:  22    -0.115956725726E+04   -0.49792E-02   -0.24859E-03  2176   0.993E-02    0.564E-01
RMM:  23    -0.115957068943E+04   -0.34322E-02   -0.17849E-03  2302   0.688E-02    0.561E-01
RMM:  24    -0.115957293427E+04   -0.22448E-02   -0.12074E-03  2319   0.519E-02    0.605E-01
RMM:  25    -0.115957405478E+04   -0.11205E-02   -0.91374E-04  2312   0.453E-02    0.652E-01
RMM:  26    -0.115957448491E+04   -0.43013E-03   -0.65417E-04  2389   0.320E-02    0.754E-01
RMM:  27    -0.115957459771E+04   -0.11280E-03   -0.11989E-04  2179   0.145E-02    0.771E-01
RMM:  28    -0.115957469438E+04   -0.96668E-04   -0.28914E-05  1812   0.104E-02    0.743E-01
RMM:  29    -0.115957468159E+04    0.12783E-04   -0.65806E-06  1386   0.347E-03    0.748E-01
RMM:  30    -0.115957489065E+04   -0.20905E-03   -0.11181E-04  1908   0.172E-02    0.694E-01
RMM:  31    -0.115957514577E+04   -0.25512E-03   -0.19350E-04  2176   0.205E-02    0.622E-01
RMM:  32    -0.115957517737E+04   -0.31602E-04   -0.81386E-04  2157   0.420E-02    0.539E-01
RMM:  33    -0.115957501539E+04    0.16199E-03   -0.14796E-03  2354   0.513E-02    0.666E-01
RMM:  34    -0.115957552417E+04   -0.50878E-03   -0.76075E-04  2366   0.347E-02    0.832E-01
RMM:  35    -0.115957691323E+04   -0.13891E-02   -0.94214E-04  2291   0.364E-02    0.157E+00
RMM:  36    -0.115957561481E+04    0.12984E-02   -0.58541E-04  1939   0.489E-02    0.130E+00
RMM:  37    -0.115957546601E+04    0.14880E-03   -0.60996E-05  1856   0.148E-02    0.142E+00
RMM:  38    -0.115957404229E+04    0.14237E-02   -0.24860E-03  2039   0.722E-02    0.714E-01
RMM:  39    -0.115957539910E+04   -0.13568E-02   -0.14848E-03  2118   0.548E-02    0.667E-01
RMM:  40    -0.115957541054E+04   -0.11444E-04   -0.24917E-03  2373   0.579E-02    0.801E-01
RMM:  41    -0.115957463344E+04    0.77710E-03   -0.12188E-03  2369   0.419E-02    0.979E-01
RMM:  42    -0.115957339613E+04    0.12373E-02   -0.98922E-04  2395   0.340E-02    0.115E+00
RMM:  43    -0.115957425850E+04   -0.86237E-03   -0.10760E-04  1961   0.196E-02    0.110E+00
RMM:  44    -0.115957445177E+04   -0.19327E-03   -0.31297E-05  1782   0.837E-03    0.107E+00
RMM:  45    -0.115957448027E+04   -0.28497E-04   -0.44468E-06  1284   0.330E-03    0.107E+00
RMM:  46    -0.115957440807E+04    0.72194E-04   -0.11375E-05  1721   0.479E-03    0.106E+00
RMM:  47    -0.115957570236E+04   -0.12943E-02   -0.49791E-04  2011   0.321E-02    0.861E-01
RMM:  48    -0.115957709369E+04   -0.13913E-02   -0.95079E-04  2192   0.408E-02    0.682E-01
RMM:  49    -0.115957849591E+04   -0.14022E-02   -0.16687E-03  2263   0.521E-02    0.572E-01
RMM:  50    -0.115957863391E+04   -0.13800E-03   -0.29144E-04  2201   0.251E-02    0.553E-01
RMM:  51    -0.115957859835E+04    0.35559E-04   -0.44122E-05  1879   0.965E-03    0.571E-01
RMM:  52    -0.115957829977E+04    0.29858E-03   -0.16901E-05  1740   0.761E-03    0.569E-01
RMM:  53    -0.115957820265E+04    0.97120E-04   -0.94538E-06  1474   0.518E-03    0.571E-01
RMM:  54    -0.115957791712E+04    0.28553E-03   -0.37211E-05  1750   0.835E-03    0.567E-01
RMM:  55    -0.115957734280E+04    0.57432E-03   -0.15028E-04  2022   0.163E-02    0.593E-01
RMM:  56    -0.115957632527E+04    0.10175E-02   -0.40158E-04  2112   0.253E-02    0.670E-01
RMM:  57    -0.115957648810E+04   -0.16283E-03   -0.88134E-05  2155   0.122E-02    0.680E-01
RMM:  58    -0.115957634527E+04    0.14283E-03   -0.24558E-05  1854   0.716E-03    0.694E-01
RMM:  59    -0.115957650471E+04   -0.15943E-03   -0.56080E-06  1355   0.508E-03    0.683E-01
RMM:  60    -0.115957604510E+04    0.45960E-03   -0.26068E-05  1649   0.765E-03    0.713E-01
RMM:  61    -0.115957570707E+04    0.33803E-03   -0.30132E-05  1810   0.716E-03    0.741E-01
RMM:  62    -0.115957481799E+04    0.88908E-03   -0.13827E-04  2024   0.163E-02    0.800E-01
RMM:  63    -0.115957537372E+04   -0.55574E-03   -0.26661E-05  1751   0.106E-02    0.769E-01
RMM:  64    -0.115957535718E+04    0.16541E-04   -0.29336E-06  1244   0.381E-03    0.762E-01
RMM:  65    -0.115957601312E+04   -0.65594E-03   -0.58683E-05  1870   0.121E-02    0.707E-01
RMM:  66    -0.115957705822E+04   -0.10451E-02   -0.25082E-04  2106   0.221E-02    0.605E-01
RMM:  67    -0.115957793794E+04   -0.87972E-03   -0.39045E-04  2242   0.248E-02    0.516E-01
RMM:  68    -0.115957805904E+04   -0.12110E-03   -0.86522E-05  2046   0.109E-02    0.502E-01
RMM:  69    -0.115957870079E+04   -0.64175E-03   -0.21817E-04  2128   0.197E-02    0.439E-01
RMM:  70    -0.115957937476E+04   -0.67397E-03   -0.41784E-04  2203   0.259E-02    0.409E-01
RMM:  71    -0.115957996084E+04   -0.58608E-03   -0.37704E-04  2315   0.228E-02    0.465E-01
RMM:  72    -0.115958076258E+04   -0.80174E-03   -0.42187E-04  2240   0.242E-02    0.700E-01
RMM:  73    -0.115958067481E+04    0.87768E-04   -0.15224E-04  1989   0.196E-02    0.736E-01
RMM:  74    -0.115958055852E+04    0.11630E-03   -0.43286E-05  1771   0.904E-03    0.780E-01
RMM:  75    -0.115958052022E+04    0.38294E-04   -0.95253E-06  1460   0.556E-03    0.778E-01
RMM:  76    -0.115958048922E+04    0.31003E-04   -0.42266E-06  1301   0.347E-03    0.751E-01
RMM:  77    -0.115958460433E+04   -0.41151E-02   -0.10918E-03  2006   0.483E-02    0.200E+00
RMM:  78    -0.115958679944E+04   -0.21951E-02   -0.12571E-03  2033   0.585E-02    0.289E+00
RMM:  79    -0.115958684778E+04   -0.48342E-04   -0.84596E-04  2072   0.525E-02    0.362E+00
RMM:  80    -0.115958478178E+04    0.20660E-02   -0.53675E-04  1982   0.429E-02    0.400E+00
RMM:  81    -0.115959063060E+04   -0.58488E-02   -0.53618E-04  2152   0.345E-02    0.524E+00
RMM:  82    -0.115958141374E+04    0.92169E-02   -0.81472E-04  1969   0.578E-02    0.496E+00
RMM:  83    -0.115957556424E+04    0.58495E-02   -0.17127E-04  2050   0.230E-02    0.450E+00
RMM:  84    -0.115957285326E+04    0.27110E-02   -0.18662E-04  2022   0.224E-02    0.363E+00
RMM:  85    -0.115957450262E+04   -0.16494E-02   -0.40633E-04  1954   0.377E-02    0.290E+00
RMM:  86    -0.115957640495E+04   -0.19023E-02   -0.39314E-04  1952   0.392E-02    0.217E+00
RMM:  87    -0.115957719657E+04   -0.79163E-03   -0.46105E-04  1980   0.403E-02    0.125E+00
RMM:  88    -0.115957742997E+04   -0.23339E-03   -0.12992E-03  2067   0.567E-02    0.380E-01
RMM:  89    -0.115957916698E+04   -0.17370E-02   -0.14047E-03  2093   0.599E-02    0.453E-01
RMM:  90    -0.115957999168E+04   -0.82470E-03   -0.41925E-04  2134   0.339E-02    0.444E-01
RMM:  91    -0.115958086084E+04   -0.86916E-03   -0.47228E-04  1991   0.356E-02    0.391E-01
RMM:  92    -0.115958576246E+04   -0.49016E-02   -0.21478E-03  2159   0.641E-02    0.205E+00
RMM:  93    -0.115958331443E+04    0.24480E-02   -0.18075E-03  1992   0.858E-02    0.180E+00
RMM:  94    -0.115958477020E+04   -0.14558E-02   -0.28403E-04  2054   0.281E-02    0.260E+00
RMM:  95    -0.115958506170E+04   -0.29151E-03   -0.33566E-04  1960   0.343E-02    0.308E+00
RMM:  96    -0.115958036177E+04    0.46999E-02   -0.28719E-04  1916   0.349E-02    0.272E+00
RMM:  97    -0.115957593467E+04    0.44271E-02   -0.64133E-04  2114   0.358E-02    0.168E+00
RMM:  98    -0.115957750211E+04   -0.15674E-02   -0.85335E-04  1991   0.483E-02    0.104E+00
RMM:  99    -0.115957927599E+04   -0.17739E-02   -0.53286E-04  2038   0.401E-02    0.706E-01
RMM: 100    -0.115957974260E+04   -0.46662E-03   -0.33107E-04  2137   0.277E-02    0.496E-01
RMM: 101    -0.115958008545E+04   -0.34284E-03   -0.14058E-04  2092   0.189E-02    0.465E-01
RMM: 102    -0.115957939936E+04    0.68609E-03   -0.36026E-04  2150   0.242E-02    0.334E-01
RMM: 103    -0.115957943953E+04   -0.40167E-04   -0.13396E-04  2114   0.164E-02    0.345E-01
RMM: 104    -0.115957945214E+04   -0.12614E-04   -0.45086E-05  1842   0.776E-03    0.339E-01
RMM: 105    -0.115957948670E+04   -0.34561E-04   -0.62677E-06  1334   0.467E-03    0.337E-01
RMM: 106    -0.115957952638E+04   -0.39680E-04   -0.22356E-06  1240   0.291E-03    0.335E-01
RMM: 107    -0.115957984432E+04   -0.31794E-03   -0.51282E-05  1776   0.111E-02    0.345E-01
RMM: 108    -0.115957988790E+04   -0.43581E-04   -0.13842E-05  1449   0.529E-03    0.344E-01
RMM: 109    -0.115957986645E+04    0.21457E-04   -0.31398E-06  1150   0.284E-03    0.348E-01
RMM: 110    -0.115957984067E+04    0.25772E-04   -0.64925E-07  1076   0.202E-03    0.347E-01
RMM: 111    -0.115957979925E+04    0.41422E-04   -0.95460E-07  1097   0.192E-03    0.349E-01
RMM: 112    -0.115958017858E+04   -0.37932E-03   -0.58909E-05  1821   0.113E-02    0.458E-01
RMM: 113    -0.115958002699E+04    0.15158E-03   -0.18370E-05  1574   0.883E-03    0.443E-01
RMM: 114    -0.115957982435E+04    0.20264E-03   -0.13480E-05  1610   0.682E-03    0.436E-01
RMM: 115    -0.115957959847E+04    0.22588E-03   -0.35764E-05  1819   0.830E-03    0.422E-01
RMM: 116    -0.115957938995E+04    0.20852E-03   -0.52353E-05  1967   0.913E-03    0.419E-01
RMM: 117    -0.115957824871E+04    0.11412E-02   -0.49814E-04  2093   0.308E-02    0.450E-01
RMM: 118    -0.115957839281E+04   -0.14410E-03   -0.94497E-05  1992   0.137E-02    0.449E-01
RMM: 119    -0.115957852286E+04   -0.13005E-03   -0.16588E-05  1652   0.726E-03    0.426E-01
RMM: 120    -0.115957856758E+04   -0.44721E-04   -0.57795E-06  1352   0.433E-03
   6 F= -.11685287E+04 E0= -.11685098E+04  d E =-.100443E+00  mag=    30.1391
 curvature:  -0.65 expect dE=-0.303E+00 dE for cont linesearch -0.392E-04
 trial: gam= 0.30486 g(F)=  0.396E+00 g(S)=  0.690E-01 ort =-0.105E-01 (trialstep = 0.310E+00)
 search vector abs. value=  0.630E+00
 bond charge predicted
       N       E                     dE             d eps       ncg     rms          rms(c)
DAV:   1    -0.115962892756E+04   -0.50405E-01   -0.16819E+01  2046   0.836E+00    0.197E+00
RMM:   2    -0.115969246326E+04   -0.63536E-01   -0.45013E-01  2288   0.143E+00    0.494E+00
RMM:   3    -0.115968035904E+04    0.12104E-01   -0.94626E-02  2348   0.673E-01    0.537E+00
RMM:   4    -0.115968163544E+04   -0.12764E-02   -0.59594E-02  2347   0.513E-01    0.371E+00
RMM:   5    -0.115965083190E+04    0.30804E-01   -0.27799E-02  2219   0.351E-01    0.155E+00
RMM:   6    -0.115968312134E+04   -0.32289E-01   -0.29716E-02  2237   0.358E-01    0.453E+00
RMM:   7    -0.115964797866E+04    0.35143E-01   -0.21887E-02  2293   0.315E-01    0.228E+00
RMM:   8    -0.115963955413E+04    0.84245E-02   -0.17020E-02  2195   0.296E-01    0.177E+00
RMM:   9    -0.115963132810E+04    0.82260E-02   -0.75881E-03  2272   0.178E-01    0.177E+00
RMM:  10    -0.115962815035E+04    0.31777E-02   -0.17999E-03  2514   0.623E-02    0.174E+00
RMM:  11    -0.115962806385E+04    0.86502E-04   -0.24366E-04  2225   0.240E-02    0.172E+00
RMM:  12    -0.115964051637E+04   -0.12453E-01   -0.65976E-03  2129   0.153E-01    0.275E+00
RMM:  13    -0.115963996397E+04    0.55240E-03   -0.99330E-03  2221   0.189E-01    0.176E+00
RMM:  14    -0.115964740512E+04   -0.74412E-02   -0.10382E-02  2278   0.191E-01    0.132E+00
RMM:  15    -0.115965090567E+04   -0.35005E-02   -0.87661E-03  2284   0.184E-01    0.114E+00
RMM:  16    -0.115965099419E+04   -0.88517E-04   -0.48235E-03  2278   0.132E-01    0.767E-01
RMM:  17    -0.115965178946E+04   -0.79527E-03   -0.23367E-03  2225   0.934E-02    0.824E-01
RMM:  18    -0.115965185001E+04   -0.60557E-04   -0.22795E-03  2209   0.898E-02    0.909E-01
RMM:  19    -0.115965061196E+04    0.12381E-02   -0.14651E-03  2241   0.725E-02    0.943E-01
RMM:  20    -0.115964825969E+04    0.23523E-02   -0.14229E-03  2267   0.641E-02    0.103E+00
RMM:  21    -0.115964640059E+04    0.18591E-02   -0.74629E-04  2362   0.375E-02    0.114E+00
RMM:  22    -0.115964726727E+04   -0.86667E-03   -0.10221E-04  2039   0.174E-02    0.110E+00
RMM:  23    -0.115964894936E+04   -0.16821E-02   -0.38668E-04  1956   0.325E-02    0.907E-01
RMM:  24    -0.115965050303E+04   -0.15537E-02   -0.63315E-04  2232   0.432E-02    0.782E-01
RMM:  25    -0.115965162328E+04   -0.11202E-02   -0.77940E-04  2296   0.483E-02    0.636E-01
RMM:  26    -0.115965193885E+04   -0.31557E-03   -0.98507E-04  2251   0.510E-02    0.487E-01
RMM:  27    -0.115965177973E+04    0.15912E-03   -0.47408E-04  2285   0.361E-02    0.377E-01
RMM:  28    -0.115965121048E+04    0.56925E-03   -0.73505E-04  2281   0.380E-02    0.220E-01
RMM:  29    -0.115965116493E+04    0.45548E-04   -0.45938E-04  2237   0.296E-02    0.264E-01
RMM:  30    -0.115965107249E+04    0.92441E-04   -0.16096E-04  2245   0.191E-02    0.282E-01
RMM:  31    -0.115965088162E+04    0.19087E-03   -0.17566E-04  2251   0.151E-02    0.334E-01
RMM:  32    -0.115965080741E+04    0.74216E-04   -0.43897E-05  1894   0.996E-03    0.372E-01
RMM:  33    -0.115965114150E+04   -0.33410E-03   -0.15414E-04  1870   0.221E-02    0.314E-01
RMM:  34    -0.115965164912E+04   -0.50762E-03   -0.28309E-04  2156   0.224E-02    0.317E-01
RMM:  35    -0.115965197120E+04   -0.32208E-03   -0.56657E-04  2226   0.297E-02    0.319E-01
RMM:  36    -0.115965196945E+04    0.17531E-05   -0.89046E-04  2295   0.370E-02    0.469E-01
RMM:  37    -0.115965225080E+04   -0.28135E-03   -0.15695E-04  2138   0.172E-02    0.475E-01
RMM:  38    -0.115965228309E+04   -0.32288E-04   -0.26604E-05  1809   0.823E-03    0.439E-01
RMM:  39    -0.115965234545E+04   -0.62356E-04   -0.93968E-05  1925   0.154E-02    0.346E-01
RMM:  40    -0.115965242747E+04   -0.82029E-04   -0.13722E-04  2168   0.158E-02    0.262E-01
RMM:  41    -0.115965258814E+04   -0.16066E-03   -0.19708E-04  2186   0.186E-02    0.189E-01
RMM:  42    -0.115965269124E+04   -0.10310E-03   -0.99007E-05  2222   0.128E-02    0.170E-01
RMM:  43    -0.115965278822E+04   -0.96981E-04   -0.69664E-05  2176   0.113E-02    0.164E-01
RMM:  44    -0.115965287424E+04   -0.86015E-04   -0.54340E-05  2155   0.930E-03    0.180E-01
RMM:  45    -0.115965293342E+04   -0.59181E-04   -0.19879E-05  1879   0.623E-03    0.192E-01
RMM:  46    -0.115965298968E+04   -0.56260E-04   -0.15450E-05  1778   0.509E-03    0.201E-01
RMM:  47    -0.115965298313E+04    0.65459E-05   -0.44419E-06  1404   0.374E-03    0.206E-01
RMM:  48    -0.115965298290E+04    0.23292E-06   -0.27018E-06  1318   0.263E-03
   7 F= -.11686172E+04 E0= -.11685977E+04  d E =-.884175E-01  mag=    30.0684
 trial-energy change:   -0.088418  1 .order   -0.087353   -0.143360   -0.031345
 step:   0.3911(harm=  0.3969)  dis= 0.01193  next Energy= -1168.621278 (dE=-0.925E-01)
 bond charge predicted
       N       E                     dE             d eps       ncg     rms          rms(c)
DAV:   1    -0.115965207692E+04    0.90621E-03   -0.11502E+00  2160   0.218E+00    0.538E-01
RMM:   2    -0.115965993555E+04   -0.78586E-02   -0.31840E-02  2274   0.392E-01    0.197E+00
RMM:   3    -0.115965562877E+04    0.43068E-02   -0.84537E-03  2337   0.188E-01    0.112E+00
RMM:   4    -0.115965700535E+04   -0.13766E-02   -0.42091E-03  2302   0.144E-01    0.115E+00
RMM:   5    -0.115965554310E+04    0.14622E-02   -0.27357E-03  2291   0.114E-01    0.104E+00
RMM:   6    -0.115965527901E+04    0.26409E-03   -0.15285E-03  2198   0.923E-02    0.846E-01
RMM:   7    -0.115965499411E+04    0.28490E-03   -0.85854E-04  2257   0.611E-02    0.875E-01
RMM:   8    -0.115965437753E+04    0.61659E-03   -0.70658E-04  2221   0.579E-02    0.762E-01
RMM:   9    -0.115965420575E+04    0.17178E-03   -0.65341E-04  2192   0.544E-02    0.658E-01
RMM:  10    -0.115965361777E+04    0.58798E-03   -0.67696E-04  2181   0.548E-02    0.492E-01
RMM:  11    -0.115965342219E+04    0.19558E-03   -0.17740E-04  2109   0.263E-02    0.444E-01
RMM:  12    -0.115965362989E+04   -0.20770E-03   -0.25311E-04  2063   0.334E-02    0.487E-01
RMM:  13    -0.115965392267E+04   -0.29279E-03   -0.38596E-04  2083   0.409E-02    0.617E-01
RMM:  14    -0.115965426453E+04   -0.34186E-03   -0.52155E-04  2159   0.421E-02    0.700E-01
RMM:  15    -0.115965417847E+04    0.86065E-04   -0.39932E-04  2265   0.341E-02    0.604E-01
RMM:  16    -0.115965403931E+04    0.13915E-03   -0.54162E-04  2246   0.424E-02    0.454E-01
RMM:  17    -0.115965384391E+04    0.19540E-03   -0.54539E-04  2197   0.442E-02    0.366E-01
RMM:  18    -0.115965356509E+04    0.27882E-03   -0.48248E-04  2226   0.402E-02    0.318E-01
RMM:  19    -0.115965231967E+04    0.12454E-02   -0.72596E-04  2190   0.405E-02    0.427E-01
RMM:  20    -0.115965162527E+04    0.69439E-03   -0.36361E-04  2307   0.246E-02    0.504E-01
RMM:  21    -0.115965193065E+04   -0.30538E-03   -0.42309E-05  1936   0.120E-02    0.494E-01
RMM:  22    -0.115965309936E+04   -0.11687E-02   -0.32407E-04  1929   0.288E-02    0.363E-01
RMM:  23    -0.115965344977E+04   -0.35041E-03   -0.17492E-04  2100   0.222E-02    0.300E-01
RMM:  24    -0.115965395643E+04   -0.50666E-03   -0.25747E-04  2215   0.245E-02    0.204E-01
RMM:  25    -0.115965430178E+04   -0.34535E-03   -0.21858E-04  2164   0.215E-02    0.158E-01
RMM:  26    -0.115965438857E+04   -0.86787E-04   -0.14510E-04  2181   0.171E-02    0.152E-01
RMM:  27    -0.115965436698E+04    0.21590E-04   -0.87714E-05  2145   0.127E-02    0.141E-01
RMM:  28    -0.115965432111E+04    0.45864E-04   -0.75881E-05  2194   0.110E-02    0.145E-01
RMM:  29    -0.115965429188E+04    0.29234E-04   -0.43154E-05  1954   0.810E-03    0.159E-01
RMM:  30    -0.115965426693E+04    0.24944E-04   -0.21142E-05  1782   0.591E-03    0.178E-01
RMM:  31    -0.115965425102E+04    0.15914E-04   -0.78596E-05  1842   0.152E-02    0.157E-01
RMM:  32    -0.115965429865E+04   -0.47631E-04   -0.95916E-06  1400   0.592E-03    0.166E-01
RMM:  33    -0.115965428487E+04    0.13777E-04   -0.62459E-05  1972   0.104E-02    0.164E-01
RMM:  34    -0.115965422975E+04    0.55124E-04   -0.86257E-05  2101   0.117E-02    0.178E-01
RMM:  35    -0.115965417288E+04    0.56872E-04   -0.65142E-05  2086   0.944E-03    0.191E-01
RMM:  36    -0.115965416155E+04    0.11327E-04   -0.20799E-05  1669   0.587E-03    0.196E-01
RMM:  37    -0.115965413345E+04    0.28096E-04   -0.11384E-05  1512   0.422E-03    0.200E-01
RMM:  38    -0.115965400290E+04    0.13055E-03   -0.28247E-05  1807   0.705E-03    0.210E-01
RMM:  39    -0.115965440518E+04   -0.40228E-03   -0.24896E-04  1887   0.264E-02    0.178E-01
RMM:  40    -0.115965459646E+04   -0.19128E-03   -0.35856E-04  2170   0.255E-02    0.201E-01
RMM:  41    -0.115965479493E+04   -0.19847E-03   -0.20452E-04  2293   0.168E-02    0.267E-01
RMM:  42    -0.115965458852E+04    0.20641E-03   -0.94542E-05  1872   0.205E-02    0.215E-01
RMM:  43    -0.115965482737E+04   -0.23885E-03   -0.64626E-05  1853   0.131E-02    0.311E-01
RMM:  44    -0.115965466927E+04    0.15810E-03   -0.24574E-05  1633   0.102E-02    0.277E-01
RMM:  45    -0.115965468042E+04   -0.11143E-04   -0.26208E-06  1225   0.333E-03    0.291E-01
RMM:  46    -0.115965463464E+04    0.45780E-04   -0.37111E-06  1265   0.347E-03    0.280E-01
RMM:  47    -0.115965459796E+04    0.36678E-04   -0.33112E-06  1259   0.304E-03    0.285E-01
RMM:  48    -0.115965462387E+04   -0.25913E-04   -0.12708E-06  1091   0.245E-03    0.271E-01
RMM:  49    -0.115965464476E+04   -0.20886E-04   -0.13814E-05  1664   0.595E-03    0.209E-01
RMM:  50    -0.115965476336E+04   -0.11860E-03   -0.22633E-05  1747   0.971E-03    0.195E-01
RMM:  51    -0.115965471813E+04    0.45230E-04   -0.15926E-05  1691   0.654E-03    0.154E-01
RMM:  52    -0.115965473557E+04   -0.17440E-04   -0.71172E-06  1440   0.444E-03    0.163E-01
RMM:  53    -0.115965474735E+04   -0.11777E-04   -0.27902E-06  1270   0.316E-03    0.169E-01
RMM:  54    -0.115965472970E+04    0.17649E-04   -0.21978E-06  1187   0.276E-03    0.171E-01
RMM:  55    -0.115965464862E+04    0.81076E-04   -0.17733E-05  1694   0.573E-03    0.164E-01
RMM:  56    -0.115965461049E+04    0.38130E-04   -0.15951E-05  1566   0.508E-03    0.167E-01
RMM:  57    -0.115965451183E+04    0.98666E-04   -0.39725E-05  1926   0.786E-03    0.164E-01
[...]
RMM:  31    -0.116037975884E+04   -0.19756E-05   -0.13870E-07   896   0.497E-04    0.336E-04
RMM:  32    -0.116037976010E+04   -0.12640E-05   -0.12249E-07   889   0.511E-04    0.300E-04
RMM:  33    -0.116037976105E+04   -0.95423E-06   -0.11464E-07   834   0.462E-04
 102 F= -.11694468E+04 E0= -.11694283E+04  d E =-.216423E-02  mag=    30.3878
 trial-energy change:   -0.002164  1 .order   -0.002162   -0.002961   -0.001362
 step:   0.7959(harm=  0.7959)  dis= 0.00803  next Energy= -1169.447363 (dE=-0.274E-02)
 bond charge predicted
       N       E                     dE             d eps       ncg     rms          rms(c)
DAV:   1    -0.116037176763E+04    0.79925E-02   -0.28675E+00  1992   0.375E+00    0.442E-01
RMM:   2    -0.116037887235E+04   -0.71047E-02   -0.65480E-02  2306   0.530E-01    0.870E-01
RMM:   3    -0.116038293696E+04   -0.40646E-02   -0.93460E-03  2240   0.242E-01    0.182E+00
RMM:   4    -0.116037919322E+04    0.37437E-02   -0.51979E-03  2466   0.160E-01    0.104E+00
RMM:   5    -0.116037844736E+04    0.74586E-03   -0.19459E-03  2210   0.108E-01    0.435E-01
RMM:   6    -0.116037863114E+04   -0.18378E-03   -0.83855E-04  2277   0.641E-02    0.323E-01
RMM:   7    -0.116037885233E+04   -0.22119E-03   -0.45117E-04  2269   0.425E-02    0.437E-01
RMM:   8    -0.116037846846E+04    0.38387E-03   -0.35589E-04  2241   0.401E-02    0.176E-01
RMM:   9    -0.116037867818E+04   -0.20972E-03   -0.36143E-04  2203   0.402E-02    0.255E-01
RMM:  10    -0.116037857786E+04    0.10032E-03   -0.23812E-04  2223   0.339E-02    0.150E-01
RMM:  11    -0.116037856950E+04    0.83597E-05   -0.13425E-04  2048   0.251E-02    0.125E-01
RMM:  12    -0.116037854554E+04    0.23957E-04   -0.62575E-05  1882   0.167E-02    0.667E-02
RMM:  13    -0.116037855555E+04   -0.10005E-04   -0.26001E-05  1654   0.113E-02    0.595E-02
RMM:  14    -0.116037855003E+04    0.55120E-05   -0.11964E-05  1494   0.819E-03    0.226E-02
RMM:  15    -0.116037855615E+04   -0.61151E-05   -0.37415E-06  1371   0.461E-03    0.228E-02
RMM:  16    -0.116037855929E+04   -0.31354E-05   -0.19694E-06  1309   0.346E-03    0.105E-02
RMM:  17    -0.116037856572E+04   -0.64388E-05   -0.11620E-06  1237   0.263E-03    0.119E-02
RMM:  18    -0.116037857047E+04   -0.47494E-05   -0.10159E-06  1232   0.258E-03    0.899E-03
RMM:  19    -0.116037857534E+04   -0.48623E-05   -0.69678E-07  1193   0.194E-03    0.933E-03
RMM:  20    -0.116037857863E+04   -0.32949E-05   -0.45600E-07  1151   0.165E-03    0.502E-03
RMM:  21    -0.116037858084E+04   -0.22128E-05   -0.26633E-07  1063   0.110E-03    0.604E-03
RMM:  22    -0.116037858316E+04   -0.23154E-05   -0.19716E-07  1025   0.988E-04    0.227E-03
RMM:  23    -0.116037858649E+04   -0.33286E-05   -0.15866E-07   995   0.706E-04    0.224E-03
RMM:  24    -0.116037858846E+04   -0.19741E-05   -0.13420E-07   937   0.737E-04    0.233E-03
RMM:  25    -0.116037859049E+04   -0.20303E-05   -0.10929E-07   859   0.572E-04    0.113E-03
RMM:  26    -0.116037859228E+04   -0.17869E-05   -0.91316E-08   858   0.512E-04    0.106E-03
RMM:  27    -0.116037859317E+04   -0.89504E-06   -0.68046E-08   773   0.457E-04
 103 F= -.11694473E+04 E0= -.11694289E+04  d E =-.269923E-02  mag=    30.3903
 curvature:  -5.72 expect dE=-0.498E-01 dE for cont linesearch -0.691E-06
 trial: gam= 1.35776 g(F)=  0.861E-02 g(S)=  0.923E-04 ort =-0.109E-03 (trialstep = 0.261E+00)
 search vector abs. value=  0.191E+00
 bond charge predicted
       N       E                     dE             d eps       ncg     rms          rms(c)
DAV:   1    -0.116037206638E+04    0.65259E-02   -0.27542E+00  1992   0.366E+00    0.450E-01
RMM:   2    -0.116037887439E+04   -0.68080E-02   -0.63235E-02  2293   0.523E-01    0.788E-01
RMM:   3    -0.116038362026E+04   -0.47459E-02   -0.97264E-03  2222   0.246E-01    0.187E+00
RMM:   4    -0.116037917288E+04    0.44474E-02   -0.52080E-03  2451   0.162E-01    0.922E-01
RMM:   5    -0.116037873945E+04    0.43343E-03   -0.20822E-03  2211   0.112E-01    0.489E-01
RMM:   6    -0.116037872952E+04    0.99342E-05   -0.75929E-04  2296   0.593E-02    0.301E-01
RMM:   7    -0.116037900961E+04   -0.28009E-03   -0.43815E-04  2238   0.431E-02    0.427E-01
RMM:   8    -0.116037864611E+04    0.36350E-03   -0.33335E-04  2242   0.387E-02    0.191E-01
RMM:   9    -0.116037884009E+04   -0.19398E-03   -0.33865E-04  2163   0.388E-02    0.260E-01
RMM:  10    -0.116037875691E+04    0.83184E-04   -0.24052E-04  2218   0.342E-02    0.155E-01
RMM:  11    -0.116037873994E+04    0.16963E-04   -0.14008E-04  2107   0.261E-02    0.120E-01
RMM:  12    -0.116037871939E+04    0.20551E-04   -0.62382E-05  1893   0.169E-02    0.608E-02
RMM:  13    -0.116037873220E+04   -0.12812E-04   -0.26907E-05  1671   0.114E-02    0.582E-02
RMM:  14    -0.116037872788E+04    0.43236E-05   -0.12605E-05  1500   0.833E-03    0.267E-02
RMM:  15    -0.116037873208E+04   -0.42018E-05   -0.38541E-06  1368   0.473E-03    0.223E-02
RMM:  16    -0.116037873631E+04   -0.42316E-05   -0.18510E-06  1310   0.332E-03    0.115E-02
RMM:  17    -0.116037874207E+04   -0.57569E-05   -0.12626E-06  1259   0.276E-03    0.122E-02
RMM:  18    -0.116037874744E+04   -0.53669E-05   -0.93883E-07  1215   0.242E-03    0.889E-03
RMM:  19    -0.116037875126E+04   -0.38212E-05   -0.67019E-07  1180   0.195E-03    0.872E-03
RMM:  20    -0.116037875547E+04   -0.42156E-05   -0.45777E-07  1148   0.157E-03    0.721E-03
RMM:  21    -0.116037875741E+04   -0.19321E-05   -0.29980E-07  1068   0.124E-03    0.428E-03
RMM:  22    -0.116037876098E+04   -0.35688E-05   -0.20539E-07  1050   0.895E-04    0.224E-03
RMM:  23    -0.116037876369E+04   -0.27196E-05   -0.16859E-07  1004   0.809E-04    0.242E-03
RMM:  24    -0.116037876588E+04   -0.21812E-05   -0.13664E-07   921   0.689E-04    0.214E-03
RMM:  25    -0.116037876781E+04   -0.19376E-05   -0.10771E-07   851   0.598E-04    0.119E-03
RMM:  26    -0.116037876958E+04   -0.17615E-05   -0.91560E-08   811   0.514E-04    0.979E-04
RMM:  27    -0.116037877095E+04   -0.13787E-05   -0.76531E-08   818   0.466E-04    0.891E-04
RMM:  28    -0.116037877192E+04   -0.96583E-06   -0.61504E-08   759   0.433E-04
 104 F= -.11694491E+04 E0= -.11694306E+04  d E =-.177319E-02  mag=    30.3926
 trial-energy change:   -0.001773  1 .order   -0.001790   -0.002231   -0.001350
 step:   0.9597(harm=  0.6604)  dis= 0.01387  next Energy= -1169.450573 (dE=-0.325E-02)
 bond charge predicted
       N       E                     dE             d eps       ncg     rms          rms(c)
DAV:   1    -0.116032646949E+04    0.52301E-01   -0.19768E+01  1992   0.980E+00    0.121E+00
RMM:   2    -0.116037578664E+04   -0.49317E-01   -0.45912E-01  2300   0.141E+00    0.197E+00
RMM:   3    -0.116040718199E+04   -0.31395E-01   -0.71071E-02  2211   0.666E-01    0.402E+00
RMM:   4    -0.116037653446E+04    0.30648E-01   -0.31714E-02  2483   0.394E-01    0.159E+00
RMM:   5    -0.116037558429E+04    0.95017E-03   -0.10103E-02  2209   0.239E-01    0.114E+00
RMM:   6    -0.116037583355E+04   -0.24927E-03   -0.39133E-03  2404   0.126E-01    0.114E+00
RMM:   7    -0.116037494414E+04    0.88942E-03   -0.26932E-03  2225   0.118E-01    0.661E-01
RMM:   8    -0.116037542165E+04   -0.47751E-03   -0.22334E-03  2258   0.103E-01    0.783E-01
RMM:   9    -0.116037621113E+04   -0.78948E-03   -0.23496E-03  2249   0.926E-02    0.891E-01
RMM:  10    -0.116037484212E+04    0.13690E-02   -0.18671E-03  2205   0.975E-02    0.419E-01
RMM:  11    -0.116037498447E+04   -0.14235E-03   -0.11158E-03  2247   0.737E-02    0.415E-01
RMM:  12    -0.116037468318E+04    0.30129E-03   -0.52003E-04  2206   0.476E-02    0.228E-01
RMM:  13    -0.116037477394E+04   -0.90757E-04   -0.22347E-04  2118   0.317E-02    0.194E-01
RMM:  14    -0.116037471590E+04    0.58038E-04   -0.11241E-04  1922   0.236E-02    0.113E-01
RMM:  15    -0.116037474154E+04   -0.25646E-04   -0.39617E-05  1874   0.129E-02    0.612E-02
RMM:  16    -0.116037475854E+04   -0.16994E-04   -0.22974E-05  1646   0.109E-02    0.479E-02
RMM:  17    -0.116037478084E+04   -0.22298E-04   -0.10773E-05  1512   0.738E-03    0.458E-02
RMM:  18    -0.116037479609E+04   -0.15255E-04   -0.55048E-06  1431   0.570E-03    0.284E-02
RMM:  19    -0.116037481461E+04   -0.18517E-04   -0.45321E-06  1403   0.482E-03    0.285E-02
RMM:  20    -0.116037483541E+04   -0.20801E-04   -0.35077E-06  1383   0.420E-03    0.207E-02
RMM:  21    -0.116037485327E+04   -0.17857E-04   -0.22496E-06  1342   0.348E-03    0.176E-02
RMM:  22    -0.116037486633E+04   -0.13059E-04   -0.13506E-06  1246   0.260E-03    0.115E-02
RMM:  23    -0.116037488368E+04   -0.17351E-04   -0.10622E-06  1217   0.223E-03    0.105E-02
RMM:  24    -0.116037489524E+04   -0.11568E-04   -0.71209E-07  1175   0.171E-03    0.813E-03
RMM:  25    -0.116037490591E+04   -0.10669E-04   -0.58102E-07  1110   0.146E-03    0.569E-03
RMM:  26    -0.116037491401E+04   -0.80937E-05   -0.48513E-07  1064   0.127E-03    0.413E-03
RMM:  27    -0.116037492280E+04   -0.87908E-05   -0.42433E-07  1053   0.107E-03    0.313E-03
RMM:  28    -0.116037492886E+04   -0.60641E-05   -0.31749E-07   972   0.877E-04    0.258E-03
RMM:  29    -0.116037493306E+04   -0.41970E-05   -0.25441E-07   916   0.785E-04    0.198E-03
RMM:  30    -0.116037494216E+04   -0.91006E-05   -0.36636E-07  1009   0.755E-04    0.106E-03
RMM:  31    -0.116037495019E+04   -0.80354E-05   -0.40868E-07  1029   0.837E-04    0.107E-03
RMM:  32    -0.116037495500E+04   -0.48079E-05   -0.38841E-07   983   0.777E-04    0.585E-04
RMM:  33    -0.116037495959E+04   -0.45832E-05   -0.41475E-07  1011   0.777E-04    0.525E-04
RMM:  34    -0.116037496298E+04   -0.33986E-05   -0.41728E-07   986   0.781E-04    0.434E-04
RMM:  35    -0.116037496499E+04   -0.20059E-05   -0.36546E-07   980   0.753E-04    0.504E-04
RMM:  36    -0.116037496604E+04   -0.10542E-05   -0.29931E-07   922   0.695E-04    0.285E-04
RMM:  37    -0.116037496645E+04   -0.40927E-06   -0.20929E-07   870   0.614E-04
 105 F= -.11694496E+04 E0= -.11694311E+04  d E =-.223165E-02  mag=    30.3985
 curvature:  -3.24 expect dE=-0.620E-01 dE for cont linesearch -0.243E-03
 ZBRENT: interpolating
 opt :   0.6644  next Energy= -1169.450111 (dE=-0.279E-02)
 bond charge predicted
       N       E                     dE             d eps       ncg     rms          rms(c)
DAV:   1    -0.116036876087E+04    0.62052E-02   -0.35327E+00  1992   0.414E+00    0.508E-01
RMM:   2    -0.116037749330E+04   -0.87324E-02   -0.80550E-02  2280   0.592E-01    0.901E-01
RMM:   3    -0.116038333018E+04   -0.58369E-02   -0.12391E-02  2213   0.279E-01    0.215E+00
RMM:   4    -0.116037901552E+04    0.43147E-02   -0.69687E-03  2464   0.184E-01    0.134E+00
RMM:   5    -0.116037701257E+04    0.20030E-02   -0.32618E-03  2199   0.142E-01    0.485E-01
RMM:   6    -0.116037741988E+04   -0.40732E-03   -0.11226E-03  2275   0.747E-02    0.402E-01
RMM:   7    -0.116037763481E+04   -0.21493E-03   -0.60597E-04  2277   0.504E-02    0.504E-01
RMM:   8    -0.116037722613E+04    0.40868E-03   -0.43394E-04  2241   0.457E-02    0.220E-01
RMM:   9    -0.116037739799E+04   -0.17186E-03   -0.40414E-04  2197   0.429E-02    0.260E-01
RMM:  10    -0.116037740037E+04   -0.23769E-05   -0.34329E-04  2213   0.404E-02    0.214E-01
RMM:  11    -0.116037731613E+04    0.84238E-04   -0.19843E-04  2201   0.318E-02    0.121E-01
RMM:  12    -0.116037733076E+04   -0.14625E-04   -0.83327E-05  2006   0.200E-02    0.107E-01
RMM:  13    -0.116037731390E+04    0.16860E-04   -0.36413E-05  1753   0.137E-02    0.620E-02
RMM:  14    -0.116037732018E+04   -0.62859E-05   -0.16497E-05  1548   0.914E-03    0.472E-02
RMM:  15    -0.116037731978E+04    0.40486E-06   -0.73263E-06  1457   0.673E-03
 106 F= -.11694501E+04 E0= -.11694317E+04  d E =-.278458E-02  mag=    30.3966
 curvature:  -7.45 expect dE=-0.648E-01 dE for cont linesearch -0.932E-06
 trial: gam= 0.93161 g(F)=  0.863E-02 g(S)=  0.803E-04 ort = 0.155E-03 (trialstep = 0.342E+00)
 search vector abs. value=  0.175E+00
 bond charge predicted
       N       E                     dE             d eps       ncg     rms          rms(c)
DAV:   1    -0.116036718094E+04    0.10139E-01   -0.43920E+00  1992   0.461E+00    0.555E-01
RMM:   2    -0.116037818299E+04   -0.11002E-01   -0.99426E-02  2276   0.660E-01    0.982E-01
RMM:   3    -0.116038432386E+04   -0.61409E-02   -0.15273E-02  2216   0.310E-01    0.214E+00
RMM:   4    -0.116037909401E+04    0.52299E-02   -0.77963E-03  2474   0.195E-01    0.118E+00
RMM:   5    -0.116037783923E+04    0.12548E-02   -0.32070E-03  2207   0.138E-01    0.601E-01
RMM:   6    -0.116037786025E+04   -0.21029E-04   -0.11452E-03  2327   0.725E-02    0.344E-01
RMM:   7    -0.116037832626E+04   -0.46600E-03   -0.65212E-04  2272   0.532E-02    0.537E-01
RMM:   8    -0.116037776990E+04    0.55636E-03   -0.52399E-04  2266   0.478E-02    0.260E-01
RMM:   9    -0.116037807567E+04   -0.30577E-03   -0.53732E-04  2187   0.488E-02    0.343E-01
RMM:  10    -0.116037789338E+04    0.18229E-03   -0.39601E-04  2219   0.439E-02    0.183E-01
RMM:  11    -0.116037788500E+04    0.83872E-05   -0.21467E-04  2189   0.324E-02    0.154E-01
RMM:  12    -0.116037783881E+04    0.46188E-04   -0.94378E-05  1989   0.206E-02    0.711E-02
RMM:  13    -0.116037786284E+04   -0.24035E-04   -0.43640E-05  1801   0.140E-02    0.757E-02
RMM:  14    -0.116037784647E+04    0.16375E-04   -0.20717E-05  1563   0.105E-02    0.289E-02
RMM:  15    -0.116037785018E+04   -0.37103E-05   -0.60005E-06  1434   0.577E-03    0.246E-02
RMM:  16    -0.116037785374E+04   -0.35652E-05   -0.28712E-06  1359   0.403E-03    0.145E-02
RMM:  17    -0.116037785788E+04   -0.41413E-05   -0.18565E-06  1315   0.330E-03    0.147E-02
RMM:  18    -0.116037786164E+04   -0.37524E-05   -0.13934E-06  1256   0.289E-03    0.116E-02
RMM:  19    -0.116037786403E+04   -0.23953E-05   -0.98120E-07  1230   0.247E-03    0.910E-03
RMM:  20    -0.116037786651E+04   -0.24784E-05   -0.53282E-07  1156   0.179E-03    0.527E-03
RMM:  21    -0.116037786865E+04   -0.21440E-05   -0.32341E-07  1097   0.137E-03    0.390E-03
RMM:  22    -0.116037787057E+04   -0.19103E-05   -0.22317E-07  1061   0.102E-03    0.450E-03
RMM:  23    -0.116037787218E+04   -0.16169E-05   -0.17245E-07  1037   0.927E-04    0.304E-03
RMM:  24    -0.116037787388E+04   -0.16969E-05   -0.12894E-07   942   0.726E-04    0.239E-03
RMM:  25    -0.116037787489E+04   -0.10102E-05   -0.91841E-08   849   0.658E-04    0.252E-03
RMM:  26    -0.116037787578E+04   -0.89561E-06   -0.64989E-08   774   0.545E-04
 107 F= -.11694523E+04 E0= -.11694338E+04  d E =-.220476E-02  mag=    30.3981
 trial-energy change:   -0.002205  1 .order   -0.002224   -0.003023   -0.001425
 step:   0.6986(harm=  0.6459)  dis= 0.00919  next Energy= -1169.453032 (dE=-0.293E-02)
 bond charge predicted
       N       E                     dE             d eps       ncg     rms          rms(c)
DAV:   1    -0.116036508501E+04    0.12790E-01   -0.48014E+00  1992   0.481E+00    0.580E-01
RMM:   2    -0.116037701825E+04   -0.11933E-01   -0.10886E-01  2277   0.691E-01    0.992E-01
RMM:   3    -0.116038386264E+04   -0.68444E-02   -0.16753E-02  2213   0.324E-01    0.223E+00
RMM:   4    -0.116037804478E+04    0.58179E-02   -0.84606E-03  2485   0.202E-01    0.121E+00
RMM:   5    -0.116037676191E+04    0.12829E-02   -0.34622E-03  2213   0.143E-01    0.626E-01
RMM:   6    -0.116037672172E+04    0.40195E-04   -0.12258E-03  2325   0.751E-02    0.358E-01
RMM:   7    -0.116037721213E+04   -0.49042E-03   -0.71814E-04  2265   0.559E-02    0.550E-01
RMM:   8    -0.116037666837E+04    0.54377E-03   -0.56647E-04  2273   0.495E-02    0.301E-01
RMM:   9    -0.116037690358E+04   -0.23521E-03   -0.56150E-04  2192   0.498E-02    0.334E-01
RMM:  10    -0.116037678975E+04    0.11383E-03   -0.43990E-04  2212   0.459E-02    0.209E-01
RMM:  11    -0.116037677033E+04    0.19417E-04   -0.25880E-04  2220   0.356E-02    0.175E-01
RMM:  12    -0.116037670606E+04    0.64275E-04   -0.11006E-04  2021   0.228E-02    0.755E-02
RMM:  13    -0.116037673357E+04   -0.27514E-04   -0.45809E-05  1817   0.143E-02    0.751E-02
RMM:  14    -0.116037672656E+04    0.70131E-05   -0.22244E-05  1584   0.108E-02    0.312E-02
RMM:  15    -0.116037673342E+04   -0.68613E-05   -0.76182E-06  1467   0.649E-03    0.277E-02
RMM:  16    -0.116037674085E+04   -0.74233E-05   -0.39964E-06  1380   0.468E-03    0.189E-02
RMM:  17    -0.116037674782E+04   -0.69772E-05   -0.24053E-06  1357   0.381E-03    0.177E-02
RMM:  18    -0.116037675580E+04   -0.79826E-05   -0.16317E-06  1300   0.306E-03    0.139E-02
RMM:  19    -0.116037676112E+04   -0.53157E-05   -0.11330E-06  1242   0.260E-03    0.924E-03
RMM:  20    -0.116037676728E+04   -0.61604E-05   -0.74453E-07  1184   0.201E-03    0.914E-03
RMM:  21    -0.116037677048E+04   -0.32001E-05   -0.51267E-07  1137   0.169E-03    0.652E-03
RMM:  22    -0.116037677513E+04   -0.46501E-05   -0.33690E-07  1094   0.125E-03    0.339E-03
RMM:  23    -0.116037678048E+04   -0.53522E-05   -0.28693E-07  1082   0.104E-03    0.379E-03
RMM:  24    -0.116037678362E+04   -0.31398E-05   -0.22509E-07  1028   0.934E-04    0.380E-03
RMM:  25    -0.116037678687E+04   -0.32491E-05   -0.18370E-07   945   0.753E-04    0.189E-03
RMM:  26    -0.116037678978E+04   -0.29090E-05   -0.15630E-07   899   0.682E-04    0.137E-03
RMM:  27    -0.116037679212E+04   -0.23378E-05   -0.12706E-07   871   0.570E-04    0.164E-03
RMM:  28    -0.116037679349E+04   -0.13695E-05   -0.95998E-08   832   0.531E-04    0.129E-03
RMM:  29    -0.116037679562E+04   -0.21364E-05   -0.10093E-07   845   0.470E-04    0.504E-04
RMM:  30    -0.116037679794E+04   -0.23191E-05   -0.11127E-07   896   0.492E-04    0.504E-04
RMM:  31    -0.116037680001E+04   -0.20680E-05   -0.12778E-07   920   0.484E-04    0.495E-04
RMM:  32    -0.116037680164E+04   -0.16282E-05   -0.12514E-07   891   0.500E-04    0.294E-04
RMM:  33    -0.116037680274E+04   -0.10956E-05   -0.12021E-07   867   0.474E-04    0.176E-04
RMM:  34    -0.116037680365E+04   -0.91539E-06   -0.11831E-07   850   0.477E-04
 108 F= -.11694530E+04 E0= -.11694345E+04  d E =-.285353E-02  mag=    30.4001
 curvature:  -6.18 expect dE=-0.658E-01 dE for cont linesearch -0.901E-05
 trial: gam= 1.30232 g(F)=  0.105E-01 g(S)=  0.104E-03 ort =-0.505E-03 (trialstep = 0.236E+00)
 search vector abs. value=  0.306E+00
 bond charge predicted
       N       E                     dE             d eps       ncg     rms          rms(c)
DAV:   1    -0.116036809511E+04    0.87076E-02   -0.36252E+00  1992   0.419E+00    0.518E-01
RMM:   2    -0.116037782921E+04   -0.97341E-02   -0.83550E-02  2292   0.606E-01    0.107E+00
RMM:   3    -0.116038192436E+04   -0.40951E-02   -0.12754E-02  2232   0.283E-01    0.192E+00
RMM:   4    -0.116037897351E+04    0.29508E-02   -0.69386E-03  2460   0.183E-01    0.134E+00
RMM:   5    -0.116037687023E+04    0.21033E-02   -0.29549E-03  2204   0.132E-01    0.558E-01
RMM:   6    -0.116037702289E+04   -0.15266E-03   -0.11423E-03  2261   0.758E-02    0.320E-01
RMM:   7    -0.116037743670E+04   -0.41381E-03   -0.56352E-04  2279   0.474E-02    0.511E-01
RMM:   8    -0.116037693341E+04    0.50329E-03   -0.46173E-04  2249   0.452E-02    0.222E-01
RMM:   9    -0.116037714858E+04   -0.21517E-03   -0.42891E-04  2189   0.442E-02    0.274E-01
RMM:  10    -0.116037708231E+04    0.66269E-04   -0.33237E-04  2206   0.398E-02    0.187E-01
RMM:  11    -0.116037706752E+04    0.14791E-04   -0.19739E-04  2203   0.308E-02    0.156E-01
RMM:  12    -0.116037701755E+04    0.49972E-04   -0.87633E-05  1975   0.203E-02    0.707E-02
RMM:  13    -0.116037703715E+04   -0.19601E-04   -0.37412E-05  1781   0.131E-02    0.673E-02
RMM:  14    -0.116037703221E+04    0.49439E-05   -0.17749E-05  1548   0.976E-03    0.287E-02
RMM:  15    -0.116037703646E+04   -0.42547E-05   -0.56924E-06  1434   0.579E-03    0.246E-02
RMM:  16    -0.116037704184E+04   -0.53752E-05   -0.30212E-06  1361   0.412E-03    0.177E-02
RMM:  17    -0.116037704618E+04   -0.43448E-05   -0.17791E-06  1325   0.333E-03    0.134E-02
