       N       E                     dE             d eps       ncg     rms          rms(c)
DAV:   1     0.911382011836E+04    0.91138E+04   -0.34634E+05  2004   0.140E+03
DAV:   2     0.841743310891E+03   -0.82721E+04   -0.74625E+04  2256   0.458E+02
DAV:   3    -0.116159220728E+04   -0.20033E+04   -0.19053E+04  3348   0.223E+02
DAV:   4    -0.131065277030E+04   -0.14906E+03   -0.13958E+03  3180   0.691E+01
DAV:   5    -0.131803138437E+04   -0.73786E+01   -0.68891E+01  3324   0.143E+01    0.175E+02
RMM:   6    -0.179072077050E+04   -0.47269E+03   -0.36205E+03  2586   0.145E+02    0.555E+02
RMM:   7    -0.159591776204E+04    0.19480E+03   -0.23546E+02  1993   0.439E+01    0.361E+02
RMM:   8    -0.120029531261E+04    0.39562E+03   -0.56177E+02  2128   0.515E+01    0.141E+02
RMM:   9    -0.127421826141E+04   -0.73923E+02   -0.28247E+02  2202   0.347E+01    0.199E+02
RMM:  10    -0.120729763423E+04    0.66921E+02   -0.93912E+01  2211   0.191E+01    0.161E+02
RMM:  11    -0.112845810869E+04    0.78840E+02   -0.73638E+01  2012   0.200E+01    0.131E+02
RMM:  12    -0.123396328734E+04   -0.10551E+03   -0.12713E+02  2018   0.271E+01    0.146E+02
RMM:  13    -0.110146463139E+04    0.13250E+03   -0.87094E+01  2032   0.221E+01    0.120E+02
RMM:  14    -0.105340511425E+04    0.48060E+02   -0.77488E+01  2110   0.184E+01    0.999E+01
RMM:  15    -0.105744776930E+04   -0.40427E+01   -0.51118E+01  2042   0.166E+01    0.976E+01
RMM:  16    -0.104492895693E+04    0.12519E+02   -0.31952E+01  2060   0.130E+01    0.899E+01
RMM:  17    -0.102669693033E+04    0.18232E+02   -0.12403E+01  2070   0.784E+00    0.656E+01
RMM:  18    -0.102522789106E+04    0.14690E+01   -0.75541E+00  2125   0.579E+00    0.667E+01
RMM:  19    -0.102856110874E+04   -0.33332E+01   -0.78218E+00  2116   0.583E+00    0.585E+01
RMM:  20    -0.102603415357E+04    0.25270E+01   -0.54162E+00  2086   0.510E+00    0.569E+01
RMM:  21    -0.102674504026E+04   -0.71089E+00   -0.69059E+00  2076   0.515E+00    0.476E+01
RMM:  22    -0.102557785331E+04    0.11672E+01   -0.22216E+00  2131   0.298E+00    0.319E+01
RMM:  23    -0.102761785540E+04   -0.20400E+01   -0.10205E+00  2152   0.204E+00    0.292E+01
RMM:  24    -0.102934639108E+04   -0.17285E+01   -0.66706E-01  2095   0.170E+00    0.295E+01
RMM:  25    -0.103007152792E+04   -0.72514E+00   -0.34484E-01  2058   0.122E+00    0.263E+01
RMM:  26    -0.103068241442E+04   -0.61089E+00   -0.12779E-01  2216   0.695E-01    0.273E+01
RMM:  27    -0.103241565065E+04   -0.17332E+01   -0.56195E-01  2088   0.144E+00    0.269E+01
RMM:  28    -0.103581683155E+04   -0.34012E+01   -0.13974E+00  2064   0.223E+00    0.256E+01
RMM:  29    -0.104348241745E+04   -0.76656E+01   -0.26707E+00  2096   0.310E+00    0.402E+01
RMM:  30    -0.104617424080E+04   -0.26918E+01   -0.27828E+00  2180   0.315E+00    0.295E+01
RMM:  31    -0.105038949125E+04   -0.42153E+01   -0.25190E+00  2114   0.305E+00    0.331E+01
RMM:  32    -0.105294529682E+04   -0.25558E+01   -0.12792E+00  2252   0.208E+00    0.330E+01
RMM:  33    -0.105311686148E+04   -0.17156E+00   -0.86085E-01  2233   0.181E+00    0.261E+01
RMM:  34    -0.105508212619E+04   -0.19653E+01   -0.52418E-01  2073   0.140E+00    0.267E+01
RMM:  35    -0.105471518389E+04    0.36694E+00   -0.93239E-02  2332   0.587E-01    0.264E+01
RMM:  36    -0.105459598075E+04    0.11920E+00   -0.21396E-02  2495   0.205E-01    0.264E+01
RMM:  37    -0.105465833831E+04   -0.62358E-01   -0.26687E-02  2057   0.340E-01    0.269E+01
RMM:  38    -0.105459654084E+04    0.61797E-01   -0.72092E-03  2347   0.156E-01    0.270E+01
RMM:  39    -0.105439772056E+04    0.19882E+00   -0.12103E-01  2048   0.647E-01    0.292E+01
RMM:  40    -0.105454522256E+04   -0.14750E+00   -0.32207E-02  2077   0.371E-01    0.295E+01
RMM:  41    -0.105491347803E+04   -0.36826E+00   -0.81745E-02  2059   0.533E-01    0.285E+01
RMM:  42    -0.105543058602E+04   -0.51711E+00   -0.12790E-01  2155   0.629E-01    0.274E+01
RMM:  43    -0.105759616275E+04   -0.21656E+01   -0.10563E+00  2098   0.177E+00    0.304E+01
RMM:  44    -0.105812879737E+04   -0.53263E+00   -0.59362E-01  2153   0.151E+00    0.252E+01
RMM:  45    -0.106042109490E+04   -0.22923E+01   -0.67088E-01  2191   0.140E+00    0.315E+01
RMM:  46    -0.106084910592E+04   -0.42801E+00   -0.52099E-01  2186   0.130E+00    0.296E+01
RMM:  47    -0.106101839809E+04   -0.16929E+00   -0.17387E-01  2429   0.674E-01    0.279E+01
RMM:  48    -0.106144041297E+04   -0.42201E+00   -0.98597E-02  2222   0.528E-01    0.259E+01
RMM:  49    -0.106237217932E+04   -0.93177E+00   -0.14428E-01  2108   0.691E-01    0.234E+01
RMM:  50    -0.106328955771E+04   -0.91738E+00   -0.11999E-01  2242   0.631E-01    0.222E+01
RMM:  51    -0.106334602467E+04   -0.56467E-01   -0.69313E-01  2019   0.155E+00    0.254E+01
RMM:  52    -0.106318915051E+04    0.15687E+00   -0.13563E-01  2158   0.756E-01    0.248E+01
RMM:  53    -0.106302665399E+04    0.16250E+00   -0.11760E-01  2138   0.684E-01    0.230E+01
RMM:  54    -0.106343073687E+04   -0.40408E+00   -0.15773E-01  2186   0.756E-01    0.225E+01
RMM:  55    -0.106335597207E+04    0.74765E-01   -0.19362E-01  2195   0.791E-01    0.212E+01
RMM:  56    -0.106601071514E+04   -0.26547E+01   -0.10743E+00  2091   0.196E+00    0.285E+01
RMM:  57    -0.106568724589E+04    0.32347E+00   -0.43413E-01  2071   0.137E+00    0.185E+01
RMM:  58    -0.106682758624E+04   -0.11403E+01   -0.37886E-01  2122   0.114E+00    0.166E+01
RMM:  59    -0.106777375467E+04   -0.94617E+00   -0.21068E-01  2287   0.765E-01    0.163E+01
RMM:  60    -0.106875691834E+04   -0.98316E+00   -0.14721E-01  2284   0.606E-01    0.184E+01
RMM:  61    -0.106847625124E+04    0.28067E+00   -0.11899E+00  2051   0.215E+00    0.207E+01
RMM:  62    -0.106851596543E+04   -0.39714E-01   -0.37852E-01  2126   0.132E+00    0.198E+01
RMM:  63    -0.106924784276E+04   -0.73188E+00   -0.17541E-01  2378   0.803E-01    0.190E+01
RMM:  64    -0.107036868150E+04   -0.11208E+01   -0.22728E-01  2051   0.893E-01    0.171E+01
RMM:  65    -0.107130545196E+04   -0.93677E+00   -0.17862E-01  2257   0.751E-01    0.184E+01
RMM:  66    -0.107425206933E+04   -0.29466E+01   -0.14587E+00  2150   0.225E+00    0.379E+01
RMM:  67    -0.107196808973E+04    0.22840E+01   -0.60422E-01  2051   0.173E+00    0.183E+01
RMM:  68    -0.107234340438E+04   -0.37531E+00   -0.21000E-01  2090   0.995E-01    0.149E+01
RMM:  69    -0.107231485640E+04    0.28548E-01   -0.95635E-02  2200   0.569E-01    0.150E+01
RMM:  70    -0.107251760376E+04   -0.20275E+00   -0.77227E-02  2226   0.518E-01    0.199E+01
RMM:  71    -0.107255863337E+04   -0.41030E-01   -0.99980E-01  2100   0.189E+00    0.229E+01
RMM:  72    -0.107211927014E+04    0.43936E+00   -0.22909E-01  2030   0.111E+00    0.182E+01
RMM:  73    -0.107215110125E+04   -0.31831E-01   -0.81086E-02  2160   0.577E-01    0.176E+01
RMM:  74    -0.107216142347E+04   -0.10322E-01   -0.46449E-02  2365   0.373E-01    0.178E+01
RMM:  75    -0.107223108261E+04   -0.69659E-01   -0.14422E-02  2553   0.175E-01    0.181E+01
RMM:  76    -0.107231525674E+04   -0.84174E-01   -0.34737E-01  2118   0.112E+00    0.153E+01
RMM:  77    -0.107273535279E+04   -0.42010E+00   -0.24332E-01  2096   0.104E+00    0.139E+01
RMM:  78    -0.107274672991E+04   -0.11377E-01   -0.68822E-02  2383   0.474E-01    0.118E+01
RMM:  79    -0.107287809365E+04   -0.13136E+00   -0.38790E-02  2184   0.368E-01    0.112E+01
RMM:  80    -0.107317387173E+04   -0.29578E+00   -0.41151E-02  2219   0.367E-01    0.104E+01
RMM:  81    -0.107303945933E+04    0.13441E+00   -0.24324E-01  2084   0.974E-01    0.137E+01
RMM:  82    -0.107298722600E+04    0.52233E-01   -0.83870E-02  2084   0.640E-01    0.123E+01
RMM:  83    -0.107329398804E+04   -0.30676E+00   -0.10661E-01  2104   0.621E-01    0.938E+00
RMM:  84    -0.107405620562E+04   -0.76222E+00   -0.98492E-02  2095   0.576E-01    0.914E+00
RMM:  85    -0.107482075842E+04   -0.76455E+00   -0.10135E-01  2180   0.510E-01    0.907E+00
RMM:  86    -0.107544195981E+04   -0.62120E+00   -0.21747E-01  2138   0.900E-01    0.895E+00
RMM:  87    -0.107561186871E+04   -0.16991E+00   -0.71941E-02  2197   0.540E-01    0.919E+00
RMM:  88    -0.107576976367E+04   -0.15789E+00   -0.38045E-02  2354   0.331E-01    0.850E+00
RMM:  89    -0.107619871300E+04   -0.42895E+00   -0.46806E-02  2109   0.366E-01    0.755E+00
RMM:  90    -0.107656842830E+04   -0.36972E+00   -0.38961E-02  2215   0.356E-01    0.778E+00
RMM:  91    -0.107684765389E+04   -0.27923E+00   -0.70789E-02  2227   0.495E-01    0.890E+00
RMM:  92    -0.107696664057E+04   -0.11899E+00   -0.25758E-02  2350   0.286E-01    0.911E+00
RMM:  93    -0.107718342942E+04   -0.21679E+00   -0.15246E-02  2171   0.200E-01    0.902E+00
RMM:  94    -0.107741321450E+04   -0.22979E+00   -0.19033E-02  2192   0.229E-01    0.816E+00
RMM:  95    -0.107782794262E+04   -0.41473E+00   -0.35892E-02  2129   0.318E-01    0.885E+00
RMM:  96    -0.107815978948E+04   -0.33185E+00   -0.76821E-02  2227   0.513E-01    0.825E+00
RMM:  97    -0.107821294436E+04   -0.53155E-01   -0.22303E-02  2247   0.295E-01    0.922E+00
RMM:  98    -0.107816312116E+04    0.49823E-01   -0.10178E-02  2156   0.197E-01    0.109E+01
RMM:  99    -0.107826431734E+04   -0.10120E+00   -0.13563E-02  2161   0.208E-01    0.999E+00
RMM: 100    -0.107850402687E+04   -0.23971E+00   -0.33742E-02  2145   0.299E-01    0.675E+00
RMM: 101    -0.107854037393E+04   -0.36347E-01   -0.40893E-02  2081   0.429E-01    0.659E+00
RMM: 102    -0.107876276360E+04   -0.22239E+00   -0.49431E-02  2132   0.440E-01    0.842E+00
RMM: 103    -0.107884028748E+04   -0.77524E-01   -0.26992E-02  2363   0.293E-01    0.959E+00
RMM: 104    -0.107884372031E+04   -0.34328E-02   -0.24178E-02  2340   0.253E-01    0.605E+00
RMM: 105    -0.107888958865E+04   -0.45868E-01   -0.18866E-02  2243   0.246E-01    0.342E+00
RMM: 106    -0.107900624726E+04   -0.11666E+00   -0.26968E-02  2201   0.312E-01    0.240E+00
RMM: 107    -0.107901463147E+04   -0.83842E-02   -0.94114E-03  2202   0.193E-01    0.226E+00
RMM: 108    -0.107906027947E+04   -0.45648E-01   -0.69778E-03  2349   0.132E-01    0.231E+00
RMM: 109    -0.107908324438E+04   -0.22965E-01   -0.41700E-03  2312   0.113E-01    0.189E+00
RMM: 110    -0.107910651672E+04   -0.23272E-01   -0.39881E-03  2421   0.953E-02    0.153E+00
RMM: 111    -0.107922404670E+04   -0.11753E+00   -0.36793E-02  2175   0.272E-01    0.171E+00
RMM: 112    -0.107922885299E+04   -0.48063E-02   -0.64267E-03  2097   0.163E-01    0.177E+00
RMM: 113    -0.107922813870E+04    0.71429E-03   -0.25362E-03  2307   0.927E-02    0.131E+00
RMM: 114    -0.107923361590E+04   -0.54772E-02   -0.20589E-03  2225   0.981E-02    0.965E-01
RMM: 115    -0.107923932232E+04   -0.57064E-02   -0.96154E-04  2265   0.579E-02    0.105E+00
RMM: 116    -0.107925049120E+04   -0.11169E-01   -0.29544E-03  2153   0.103E-01    0.154E+00
RMM: 117    -0.107925039220E+04    0.98997E-04   -0.10863E-03  2197   0.740E-02    0.134E+00
RMM: 118    -0.107925096212E+04   -0.56992E-03   -0.33171E-04  2443   0.269E-02    0.125E+00
RMM: 119    -0.107925255007E+04   -0.15880E-02   -0.10623E-03  2249   0.615E-02    0.819E-01
RMM: 120    -0.107925608069E+04   -0.35306E-02   -0.92571E-04  2260   0.621E-02
   1 F= -.10877825E+04 E0= -.10877631E+04  d E =-.108778E+04  mag=    14.2896
       N       E                     dE             d eps       ncg     rms          rms(c)
DAV:   1     0.108210892072E+03    0.11875E+04   -0.65400E+04  2544   0.567E+02    0.286E+02
RMM:   2    -0.897823639984E+03   -0.10060E+04   -0.10896E+04  2787   0.215E+02    0.214E+02
RMM:   3    -0.117417289171E+04   -0.27635E+03   -0.36995E+03  2931   0.141E+02    0.462E+02
RMM:   4    -0.101841063213E+04    0.15576E+03   -0.66416E+02  2670   0.521E+01    0.290E+02
RMM:   5    -0.834424905670E+03    0.18399E+03   -0.63616E+02  2147   0.578E+01    0.193E+02
RMM:   6    -0.611002361740E+03    0.22342E+03   -0.29095E+02  2188   0.385E+01    0.137E+02
RMM:   7    -0.650603031499E+03   -0.39601E+02   -0.29178E+02  2213   0.347E+01    0.164E+02
RMM:   8    -0.648919469639E+03    0.16836E+01   -0.13234E+02  2319   0.245E+01    0.140E+02
RMM:   9    -0.614653433473E+03    0.34266E+02   -0.13040E+02  2027   0.297E+01    0.124E+02
RMM:  10    -0.686924112767E+03   -0.72271E+02   -0.15078E+02  2046   0.301E+01    0.143E+02
RMM:  11    -0.615321609462E+03    0.71603E+02   -0.75835E+01  2192   0.199E+01    0.127E+02
RMM:  12    -0.588206006379E+03    0.27116E+02   -0.65669E+01  2020   0.203E+01    0.101E+02
RMM:  13    -0.570442941100E+03    0.17763E+02   -0.41432E+01  2043   0.157E+01    0.830E+01
RMM:  14    -0.554132847399E+03    0.16310E+02   -0.37471E+01  2060   0.148E+01    0.816E+01
RMM:  15    -0.546025646520E+03    0.81072E+01   -0.15011E+01  2049   0.863E+00    0.606E+01
RMM:  16    -0.537817996730E+03    0.82076E+01   -0.67423E+00  2076   0.607E+00    0.482E+01
RMM:  17    -0.533073429844E+03    0.47446E+01   -0.28822E+00  2151   0.371E+00    0.365E+01
RMM:  18    -0.533631845441E+03   -0.55842E+00   -0.20207E+00  2353   0.271E+00    0.468E+01
RMM:  19    -0.534414981744E+03   -0.78314E+00   -0.26538E+00  2026   0.326E+00    0.406E+01
RMM:  20    -0.538239043839E+03   -0.38241E+01   -0.24635E+00  2024   0.348E+00    0.505E+01
RMM:  21    -0.539362929807E+03   -0.11239E+01   -0.39478E+00  2055   0.448E+00    0.462E+01
RMM:  22    -0.538809708769E+03    0.55322E+00   -0.51927E+00  2074   0.496E+00    0.383E+01
RMM:  23    -0.543264701533E+03   -0.44550E+01   -0.51465E+00  2079   0.498E+00    0.458E+01
RMM:  24    -0.540691865642E+03    0.25728E+01   -0.38517E+00  2045   0.467E+00    0.419E+01
RMM:  25    -0.539545903762E+03    0.11460E+01   -0.24306E+00  2069   0.343E+00    0.349E+01
RMM:  26    -0.538953011880E+03    0.59289E+00   -0.24386E+00  2010   0.354E+00    0.290E+01
RMM:  27    -0.537634359949E+03    0.13187E+01   -0.94237E-01  2071   0.215E+00    0.208E+01
RMM:  28    -0.537321743383E+03    0.31262E+00   -0.29027E-01  2270   0.100E+00    0.194E+01
RMM:  29    -0.537265434909E+03    0.56308E-01   -0.21502E-01  2141   0.920E-01    0.187E+01
RMM:  30    -0.537761734605E+03   -0.49630E+00   -0.55410E-01  2066   0.158E+00    0.223E+01
RMM:  31    -0.537504897393E+03    0.25684E+00   -0.19633E-01  2316   0.770E-01    0.203E+01
RMM:  32    -0.537863199021E+03   -0.35830E+00   -0.28996E-01  2062   0.110E+00    0.229E+01
RMM:  33    -0.537703779312E+03    0.15942E+00   -0.10319E-01  2143   0.598E-01    0.207E+01
RMM:  34    -0.537702524363E+03    0.12549E-02   -0.23037E-02  2511   0.192E-01    0.209E+01
RMM:  35    -0.537676649724E+03    0.25875E-01   -0.46955E-03  2415   0.110E-01    0.208E+01
RMM:  36    -0.537644550135E+03    0.32100E-01   -0.15396E-02  2030   0.265E-01    0.207E+01
RMM:  37    -0.537599429349E+03    0.45121E-01   -0.16001E-01  2041   0.706E-01    0.224E+01
RMM:  38    -0.537526800115E+03    0.72629E-01   -0.64118E-02  2343   0.414E-01    0.226E+01
RMM:  39    -0.537436873550E+03    0.89927E-01   -0.40427E-02  2358   0.323E-01    0.227E+01
RMM:  40    -0.537403678500E+03    0.33195E-01   -0.10669E-02  2561   0.145E-01    0.226E+01
RMM:  41    -0.537511631492E+03   -0.10795E+00   -0.26709E-01  2062   0.924E-01    0.197E+01
RMM:  42    -0.537627285782E+03   -0.11565E+00   -0.71469E-01  2113   0.142E+00    0.177E+01
RMM:  43    -0.537858186769E+03   -0.23090E+00   -0.40840E-01  2164   0.118E+00    0.166E+01
RMM:  44    -0.537669759515E+03    0.18843E+00   -0.42387E-01  2227   0.106E+00    0.183E+01
RMM:  45    -0.537675952610E+03   -0.61931E-02   -0.81685E-02  2405   0.457E-01    0.184E+01
RMM:  46    -0.537635254287E+03    0.40698E-01   -0.55048E-02  2421   0.385E-01    0.194E+01
RMM:  47    -0.537864039131E+03   -0.22878E+00   -0.28642E-01  2101   0.109E+00    0.222E+01
RMM:  48    -0.538168430031E+03   -0.30439E+00   -0.91103E-02  2384   0.581E-01    0.219E+01
RMM:  49    -0.538163314395E+03    0.51156E-02   -0.22736E-02  2447   0.257E-01    0.216E+01
RMM:  50    -0.538162709912E+03    0.60448E-03   -0.53574E-03  2637   0.976E-02    0.216E+01
RMM:  51    -0.538152450767E+03    0.10259E-01   -0.55332E-03  2276   0.129E-01    0.216E+01
RMM:  52    -0.538500205462E+03   -0.34775E+00   -0.10175E+00  2059   0.211E+00    0.319E+01
RMM:  53    -0.537240828688E+03    0.12594E+01   -0.43460E-01  2036   0.155E+00    0.249E+01
RMM:  54    -0.537046986953E+03    0.19384E+00   -0.16826E-01  2246   0.788E-01    0.235E+01
RMM:  55    -0.536778434341E+03    0.26855E+00   -0.27013E-01  2134   0.961E-01    0.230E+01
RMM:  56    -0.536662240546E+03    0.11619E+00   -0.23277E-01  2291   0.786E-01    0.221E+01
RMM:  57    -0.535666705327E+03    0.99554E+00   -0.53441E-01  2113   0.128E+00    0.267E+01
RMM:  58    -0.535708659078E+03   -0.41954E-01   -0.12346E-01  2127   0.701E-01    0.234E+01
RMM:  59    -0.535817498227E+03   -0.10884E+00   -0.45969E-02  2571   0.319E-01    0.233E+01
RMM:  60    -0.536019141194E+03   -0.20164E+00   -0.29471E-02  2196   0.278E-01    0.222E+01
RMM:  61    -0.536384072886E+03   -0.36493E+00   -0.10119E-01  2153   0.514E-01    0.209E+01
RMM:  62    -0.538482521800E+03   -0.20984E+01   -0.35577E+00  2016   0.366E+00    0.255E+01
RMM:  63    -0.537950917656E+03    0.53160E+00   -0.70527E-01  2023   0.198E+00    0.164E+01
RMM:  64    -0.538084143098E+03   -0.13323E+00   -0.23610E-01  2332   0.857E-01    0.142E+01
RMM:  65    -0.538319471959E+03   -0.23533E+00   -0.12611E-01  2191   0.674E-01    0.140E+01
RMM:  66    -0.538669901831E+03   -0.35043E+00   -0.19162E-01  2102   0.822E-01    0.115E+01
RMM:  67    -0.538912983010E+03   -0.24308E+00   -0.34888E-01  2070   0.120E+00    0.123E+01
RMM:  68    -0.538901746826E+03    0.11236E-01   -0.14439E-01  2053   0.861E-01    0.930E+00
RMM:  69    -0.538868408396E+03    0.33338E-01   -0.12247E-01  2329   0.566E-01    0.868E+00
RMM:  70    -0.538906868503E+03   -0.38460E-01   -0.12817E-01  2202   0.633E-01    0.798E+00
RMM:  71    -0.538964387992E+03   -0.57519E-01   -0.10922E-01  2524   0.501E-01    0.944E+00
RMM:  72    -0.539155237342E+03   -0.19085E+00   -0.20486E-01  2057   0.960E-01    0.112E+01
RMM:  73    -0.539035859972E+03    0.11938E+00   -0.81481E-02  2048   0.644E-01    0.983E+00
RMM:  74    -0.538989888392E+03    0.45972E-01   -0.28618E-02  2051   0.378E-01    0.904E+00
RMM:  75    -0.538989028213E+03    0.86018E-03   -0.71417E-03  2589   0.103E-01    0.905E+00
RMM:  76    -0.539009220263E+03   -0.20192E-01   -0.95785E-03  2119   0.192E-01    0.942E+00
RMM:  77    -0.539108090071E+03   -0.98870E-01   -0.10902E-01  2028   0.641E-01    0.824E+00
RMM:  78    -0.539095453328E+03    0.12637E-01   -0.69922E-02  2238   0.495E-01    0.955E+00
RMM:  79    -0.539111152764E+03   -0.15699E-01   -0.44438E-02  2513   0.325E-01    0.964E+00
RMM:  80    -0.539157333648E+03   -0.46181E-01   -0.25261E-02  2382   0.260E-01    0.101E+01
RMM:  81    -0.539228467044E+03   -0.71133E-01   -0.48379E-02  2269   0.365E-01    0.100E+01
RMM:  82    -0.539696714317E+03   -0.46825E+00   -0.16890E-01  2105   0.815E-01    0.136E+01
RMM:  83    -0.539727630635E+03   -0.30916E-01   -0.64897E-02  2101   0.564E-01    0.122E+01
RMM:  84    -0.539824253471E+03   -0.96623E-01   -0.19353E-02  2590   0.196E-01    0.121E+01
RMM:  85    -0.539842826365E+03   -0.18573E-01   -0.28767E-03  2480   0.788E-02    0.121E+01
RMM:  86    -0.539789182599E+03    0.53644E-01   -0.73307E-03  2067   0.177E-01    0.122E+01
RMM:  87    -0.539784318844E+03    0.48638E-02   -0.28824E-02  2063   0.351E-01    0.118E+01
RMM:  88    -0.539794112725E+03   -0.97939E-02   -0.15985E-02  2038   0.268E-01    0.120E+01
RMM:  89    -0.539825297597E+03   -0.31185E-01   -0.63527E-03  2458   0.125E-01    0.118E+01
RMM:  90    -0.539919758849E+03   -0.94461E-01   -0.13519E-02  2028   0.238E-01    0.119E+01
RMM:  91    -0.539990024813E+03   -0.70266E-01   -0.24488E-02  2155   0.294E-01    0.113E+01
RMM:  92    -0.540290920410E+03   -0.30090E+00   -0.37948E-01  2062   0.116E+00    0.104E+01
RMM:  93    -0.540436515421E+03   -0.14560E+00   -0.11910E-01  2242   0.696E-01    0.905E+00
RMM:  94    -0.540471424995E+03   -0.34910E-01   -0.57701E-02  2425   0.407E-01    0.866E+00
RMM:  95    -0.540447516062E+03    0.23909E-01   -0.41476E-02  2156   0.390E-01    0.948E+00
RMM:  96    -0.540435878134E+03    0.11638E-01   -0.55688E-02  2291   0.416E-01    0.979E+00
RMM:  97    -0.541012237315E+03   -0.57636E+00   -0.33929E-01  2038   0.125E+00    0.142E+01
RMM:  98    -0.540499326934E+03    0.51291E+00   -0.19815E-01  2011   0.115E+00    0.759E+00
RMM:  99    -0.540527836882E+03   -0.28510E-01   -0.42468E-02  2211   0.413E-01    0.875E+00
RMM: 100    -0.540580595913E+03   -0.52759E-01   -0.35711E-02  2336   0.316E-01    0.918E+00
RMM: 101    -0.540549204155E+03    0.31392E-01   -0.16630E-02  2503   0.214E-01    0.907E+00
RMM: 102    -0.540891709815E+03   -0.34251E+00   -0.14791E-01  2080   0.700E-01    0.110E+01
RMM: 103    -0.540708887968E+03    0.18282E+00   -0.74208E-02  2085   0.570E-01    0.102E+01
RMM: 104    -0.540666595019E+03    0.42293E-01   -0.24129E-02  2420   0.255E-01    0.945E+00
RMM: 105    -0.540758177086E+03   -0.91582E-01   -0.29793E-02  2212   0.299E-01    0.953E+00
RMM: 106    -0.540864151002E+03   -0.10597E+00   -0.36554E-02  2280   0.313E-01    0.829E+00
RMM: 107    -0.541111483960E+03   -0.24733E+00   -0.12368E-01  2176   0.563E-01    0.776E+00
RMM: 108    -0.541029258987E+03    0.82225E-01   -0.38682E-02  2287   0.354E-01    0.708E+00
RMM: 109    -0.540990933709E+03    0.38325E-01   -0.20091E-02  2571   0.202E-01    0.688E+00
RMM: 110    -0.540970685617E+03    0.20248E-01   -0.15428E-02  2375   0.190E-01    0.641E+00
RMM: 111    -0.540982152553E+03   -0.11467E-01   -0.30084E-03  2241   0.104E-01    0.641E+00
RMM: 112    -0.541026623011E+03   -0.44470E-01   -0.12986E-01  2037   0.737E-01    0.742E+00
RMM: 113    -0.540977922870E+03    0.48700E-01   -0.45227E-02  1996   0.510E-01    0.618E+00
RMM: 114    -0.540939104888E+03    0.38818E-01   -0.14287E-02  2180   0.203E-01    0.642E+00
RMM: 115    -0.541016085101E+03   -0.76980E-01   -0.10272E-02  2064   0.193E-01    0.620E+00
RMM: 116    -0.541007775238E+03    0.83099E-02   -0.17137E-03  2339   0.687E-02    0.626E+00
RMM: 117    -0.541084979719E+03   -0.77204E-01   -0.89098E-02  2036   0.605E-01    0.584E+00
RMM: 118    -0.541162607275E+03   -0.77628E-01   -0.28475E-02  2125   0.367E-01    0.546E+00
RMM: 119    -0.541265604741E+03   -0.10300E+00   -0.10096E-01  2140   0.521E-01    0.530E+00
RMM: 120    -0.541240353408E+03    0.25251E-01   -0.65428E-02  2506   0.333E-01
   2 F= -.55032540E+03 E0= -.55028842E+03  d E =0.537457E+03  mag=     0.0779
       N       E                     dE             d eps       ncg     rms          rms(c)
DAV:   1    -0.655060498492E+03   -0.11379E+03   -0.42915E+04  2364   0.495E+02    0.187E+02
RMM:   2    -0.137287236982E+04   -0.71781E+03   -0.66842E+03  2704   0.158E+02    0.189E+02
RMM:   3    -0.165748788659E+04   -0.28462E+03   -0.18497E+03  2645   0.932E+01    0.292E+02
RMM:   4    -0.131330249447E+04    0.34419E+03   -0.35235E+02  2175   0.473E+01    0.160E+02
RMM:   5    -0.138905650710E+04   -0.75754E+02   -0.31073E+02  2093   0.421E+01    0.188E+02
RMM:   6    -0.118811898777E+04    0.20094E+03   -0.14130E+02  2162   0.272E+01    0.139E+02
RMM:   7    -0.115090799990E+04    0.37211E+02   -0.72305E+01  2154   0.189E+01    0.123E+02
RMM:   8    -0.115281598056E+04   -0.19080E+01   -0.54229E+01  2270   0.156E+01    0.133E+02
RMM:   9    -0.112969705829E+04    0.23119E+02   -0.38925E+01  2242   0.134E+01    0.116E+02
RMM:  10    -0.112427864420E+04    0.54184E+01   -0.44177E+01  2050   0.154E+01    0.108E+02
RMM:  11    -0.119775050007E+04   -0.73472E+02   -0.62163E+01  2047   0.190E+01    0.124E+02
RMM:  12    -0.118882546111E+04    0.89250E+01   -0.45177E+01  2225   0.149E+01    0.128E+02
RMM:  13    -0.114889206949E+04    0.39933E+02   -0.47273E+01  2170   0.150E+01    0.103E+02
RMM:  14    -0.115406315916E+04   -0.51711E+01   -0.51619E+01  2095   0.166E+01    0.111E+02
RMM:  15    -0.114900381535E+04    0.50593E+01   -0.41457E+01  2065   0.151E+01    0.100E+02
RMM:  16    -0.110393338218E+04    0.45070E+02   -0.14910E+01  2123   0.886E+00    0.642E+01
RMM:  17    -0.110518855566E+04   -0.12552E+01   -0.12405E+01  2100   0.769E+00    0.623E+01
RMM:  18    -0.109822467803E+04    0.69639E+01   -0.56285E+00  2324   0.510E+00    0.590E+01
RMM:  19    -0.109903616963E+04   -0.81149E+00   -0.50248E+00  2152   0.461E+00    0.574E+01
RMM:  20    -0.109796615407E+04    0.10700E+01   -0.62320E+00  2079   0.544E+00    0.535E+01
RMM:  21    -0.109929767362E+04   -0.13315E+01   -0.41923E+00  2134   0.445E+00    0.565E+01
RMM:  22    -0.109597981677E+04    0.33179E+01   -0.16788E+00  2122   0.277E+00    0.437E+01
RMM:  23    -0.109731060406E+04   -0.13308E+01   -0.19721E+00  2134   0.304E+00    0.533E+01
RMM:  24    -0.109506735995E+04    0.22432E+01   -0.25451E+00  2097   0.342E+00    0.398E+01
RMM:  25    -0.109353441034E+04    0.15329E+01   -0.15254E+00  2138   0.267E+00    0.383E+01
RMM:  26    -0.109207778891E+04    0.14566E+01   -0.17085E+00  2206   0.270E+00    0.310E+01
RMM:  27    -0.109117679478E+04    0.90099E+00   -0.78140E-01  2161   0.181E+00    0.301E+01
RMM:  28    -0.109120497952E+04   -0.28185E-01   -0.15071E-01  2498   0.564E-01    0.303E+01
RMM:  29    -0.109114373253E+04    0.61247E-01   -0.25246E-02  2384   0.265E-01    0.305E+01
RMM:  30    -0.109115384124E+04   -0.10109E-01   -0.11549E-02  2412   0.151E-01    0.306E+01
RMM:  31    -0.109134429094E+04   -0.19045E+00   -0.82585E-02  2085   0.567E-01    0.305E+01
RMM:  32    -0.109128633860E+04    0.57952E-01   -0.22781E-02  2218   0.310E-01    0.306E+01
RMM:  33    -0.109127692565E+04    0.94130E-02   -0.59335E-02  2186   0.519E-01    0.294E+01
RMM:  34    -0.109139558739E+04   -0.11866E+00   -0.25458E-01  2152   0.102E+00    0.298E+01
RMM:  35    -0.109130702898E+04    0.88558E-01   -0.53781E-02  2336   0.468E-01    0.298E+01
RMM:  36    -0.109130031146E+04    0.67175E-02   -0.14464E-02  2371   0.249E-01    0.299E+01
RMM:  37    -0.109137912367E+04   -0.78812E-01   -0.65646E-02  2082   0.500E-01    0.310E+01
RMM:  38    -0.109134893123E+04    0.30192E-01   -0.21326E-02  2370   0.286E-01    0.309E+01
RMM:  39    -0.109142892374E+04   -0.79993E-01   -0.23973E-02  2171   0.302E-01    0.317E+01
RMM:  40    -0.109131572994E+04    0.11319E+00   -0.48227E-02  2089   0.412E-01    0.299E+01
RMM:  41    -0.109138835821E+04   -0.72628E-01   -0.51853E-02  2251   0.379E-01    0.291E+01
RMM:  42    -0.109154163109E+04   -0.15327E+00   -0.56500E-02  2406   0.363E-01    0.291E+01
RMM:  43    -0.109153248633E+04    0.91448E-02   -0.22428E-02  2400   0.259E-01    0.292E+01
RMM:  44    -0.109137447606E+04    0.15801E+00   -0.24983E-02  2359   0.264E-01    0.274E+01
RMM:  45    -0.109138405072E+04   -0.95747E-02   -0.18943E-02  2345   0.255E-01    0.272E+01
RMM:  46    -0.109160164380E+04   -0.21759E+00   -0.32454E-01  2121   0.110E+00    0.274E+01
RMM:  47    -0.109156570981E+04    0.35934E-01   -0.27872E+00  2151   0.322E+00    0.351E+01
RMM:  48    -0.109067240288E+04    0.89331E+00   -0.98594E-01  2111   0.215E+00    0.240E+01
RMM:  49    -0.109059611431E+04    0.76289E-01   -0.34919E-01  2491   0.107E+00    0.221E+01
RMM:  50    -0.109002490636E+04    0.57121E+00   -0.38237E-01  2147   0.120E+00    0.194E+01
RMM:  51    -0.108958928392E+04    0.43562E+00   -0.55525E-01  2176   0.137E+00    0.194E+01
RMM:  52    -0.108933506226E+04    0.25422E+00   -0.15950E+00  2138   0.252E+00    0.185E+01
RMM:  53    -0.108691615418E+04    0.24189E+01   -0.83230E-01  2047   0.187E+00    0.216E+01
RMM:  54    -0.108637379139E+04    0.54236E+00   -0.18300E-01  2332   0.783E-01    0.201E+01
RMM:  55    -0.108455588752E+04    0.18179E+01   -0.22368E-01  2178   0.828E-01    0.205E+01
RMM:  56    -0.108254557734E+04    0.20103E+01   -0.28788E-01  2074   0.104E+00    0.208E+01
RMM:  57    -0.107906389860E+04    0.34817E+01   -0.76577E-01  2099   0.171E+00    0.255E+01
RMM:  58    -0.107899862175E+04    0.65277E-01   -0.13183E-01  2286   0.744E-01    0.244E+01
RMM:  59    -0.107902872841E+04   -0.30107E-01   -0.30930E-02  2602   0.297E-01    0.250E+01
RMM:  60    -0.107894528817E+04    0.83440E-01   -0.14611E-02  2193   0.223E-01    0.255E+01
RMM:  61    -0.107912278264E+04   -0.17749E+00   -0.10366E-02  2006   0.210E-01    0.254E+01
RMM:  62    -0.108226043592E+04   -0.31377E+01   -0.65741E-01  2075   0.154E+00    0.471E+01
RMM:  63    -0.108112059878E+04    0.11398E+01   -0.45146E-01  2047   0.131E+00    0.265E+01
RMM:  64    -0.108163396807E+04   -0.51337E+00   -0.18765E-01  2116   0.892E-01    0.244E+01
RMM:  65    -0.108187452193E+04   -0.24055E+00   -0.10721E-01  2402   0.529E-01    0.227E+01
RMM:  66    -0.108189559601E+04   -0.21074E-01   -0.45908E-02  2262   0.372E-01    0.223E+01
RMM:  67    -0.108229436213E+04   -0.39877E+00   -0.61094E-01  2051   0.154E+00    0.262E+01
RMM:  68    -0.108158968355E+04    0.70468E+00   -0.16789E-01  2033   0.966E-01    0.240E+01
RMM:  69    -0.108142169911E+04    0.16798E+00   -0.37405E-02  2247   0.423E-01    0.243E+01
RMM:  70    -0.108134993002E+04    0.71769E-01   -0.38658E-02  2025   0.429E-01    0.245E+01
RMM:  71    -0.108113200411E+04    0.21793E+00   -0.83554E-02  2063   0.523E-01    0.248E+01
RMM:  72    -0.108652118910E+04   -0.53892E+01   -0.19649E+00  2065   0.277E+00    0.292E+01
RMM:  73    -0.108535051664E+04    0.11707E+01   -0.83491E-01  2062   0.198E+00    0.243E+01
RMM:  74    -0.108582367031E+04   -0.47315E+00   -0.27132E-01  2077   0.111E+00    0.220E+01
RMM:  75    -0.108598377078E+04   -0.16010E+00   -0.15775E-01  2272   0.749E-01    0.217E+01
RMM:  76    -0.108548423988E+04    0.49953E+00   -0.19448E-01  2104   0.792E-01    0.224E+01
RMM:  77    -0.108960511863E+04   -0.41209E+01   -0.14736E+00  2031   0.218E+00    0.227E+01
RMM:  78    -0.109015490213E+04   -0.54978E+00   -0.41880E-01  2060   0.133E+00    0.241E+01
RMM:  79    -0.109040306890E+04   -0.24817E+00   -0.17111E-01  2512   0.687E-01    0.237E+01
RMM:  80    -0.109041841626E+04   -0.15347E-01   -0.41652E-02  2532   0.273E-01    0.235E+01
RMM:  81    -0.109038737802E+04    0.31038E-01   -0.65193E-03  2512   0.123E-01    0.235E+01
RMM:  82    -0.109142100793E+04   -0.10336E+01   -0.15417E+00  2047   0.232E+00    0.223E+01
RMM:  83    -0.109092595048E+04    0.49506E+00   -0.75428E-01  2065   0.189E+00    0.194E+01
RMM:  84    -0.109111219225E+04   -0.18624E+00   -0.22899E-01  2374   0.920E-01    0.197E+01
RMM:  85    -0.109116425234E+04   -0.52060E-01   -0.11176E-01  2218   0.651E-01    0.180E+01
RMM:  86    -0.109127393356E+04   -0.10968E+00   -0.84539E-02  2291   0.534E-01    0.175E+01
RMM:  87    -0.109232652091E+04   -0.10526E+01   -0.75156E-01  2060   0.170E+00    0.235E+01
RMM:  88    -0.109160330898E+04    0.72321E+00   -0.30797E-01  2159   0.116E+00    0.175E+01
RMM:  89    -0.109159017766E+04    0.13131E-01   -0.17206E-01  2383   0.692E-01    0.159E+01
RMM:  90    -0.109155015205E+04    0.40026E-01   -0.12418E-01  2377   0.583E-01    0.147E+01
RMM:  91    -0.109138381845E+04    0.16633E+00   -0.11870E-01  2413   0.563E-01    0.131E+01
RMM:  92    -0.109138230954E+04    0.15089E-02   -0.65676E-02  2186   0.513E-01    0.124E+01
RMM:  93    -0.109137660582E+04    0.57037E-02   -0.35747E-02  2399   0.339E-01    0.119E+01
RMM:  94    -0.109132615410E+04    0.50452E-01   -0.29154E-02  2393   0.303E-01    0.116E+01
RMM:  95    -0.109119993176E+04    0.12622E+00   -0.47114E-02  2434   0.377E-01    0.106E+01
RMM:  96    -0.109117585243E+04    0.24079E-01   -0.29555E-02  2469   0.305E-01    0.869E+00
RMM:  97    -0.109113793065E+04    0.37922E-01   -0.13346E-01  2135   0.725E-01    0.726E+00
RMM:  98    -0.109116935961E+04   -0.31429E-01   -0.50507E-02  2215   0.494E-01    0.662E+00
RMM:  99    -0.109119454822E+04   -0.25189E-01   -0.30771E-02  2343   0.346E-01    0.469E+00
RMM: 100    -0.109125912316E+04   -0.64575E-01   -0.41105E-02  2298   0.375E-01    0.448E+00
RMM: 101    -0.109145092734E+04   -0.19180E+00   -0.53899E-02  2288   0.421E-01    0.103E+01
RMM: 102    -0.109152481377E+04   -0.73886E-01   -0.53981E-02  2163   0.486E-01    0.949E+00
RMM: 103    -0.109150541171E+04    0.19402E-01   -0.24013E-02  2280   0.301E-01    0.667E+00
RMM: 104    -0.109155441303E+04   -0.49001E-01   -0.29207E-02  2317   0.322E-01    0.364E+00
RMM: 105    -0.109164742326E+04   -0.93010E-01   -0.16431E-02  2220   0.234E-01    0.332E+00
RMM: 106    -0.109167206798E+04   -0.24645E-01   -0.49999E-03  2528   0.120E-01    0.339E+00
RMM: 107    -0.109176036575E+04   -0.88298E-01   -0.56530E-02  2204   0.428E-01    0.579E+00
RMM: 108    -0.109173093607E+04    0.29430E-01   -0.22509E-02  2102   0.343E-01    0.368E+00
RMM: 109    -0.109174545440E+04   -0.14518E-01   -0.72213E-03  2334   0.168E-01    0.346E+00
RMM: 110    -0.109175391748E+04   -0.84631E-02   -0.44549E-03  2497   0.104E-01    0.354E+00
RMM: 111    -0.109174180261E+04    0.12115E-01   -0.26289E-03  2332   0.890E-02    0.358E+00
RMM: 112    -0.109181233989E+04   -0.70537E-01   -0.21204E-02  2087   0.277E-01    0.299E+00
RMM: 113    -0.109180955178E+04    0.27881E-02   -0.57112E-03  2195   0.159E-01    0.306E+00
RMM: 114    -0.109180385808E+04    0.56937E-02   -0.17103E-03  2607   0.612E-02    0.300E+00
RMM: 115    -0.109180044313E+04    0.34149E-02   -0.29405E-04  2372   0.265E-02    0.302E+00
RMM: 116    -0.109177668746E+04    0.23756E-01   -0.15591E-03  2128   0.745E-02    0.294E+00
RMM: 117    -0.109177420558E+04    0.24819E-02   -0.13289E-02  2146   0.223E-01    0.256E+00
RMM: 118    -0.109174516297E+04    0.29043E-01   -0.11766E-02  2105   0.229E-01    0.241E+00
RMM: 119    -0.109175347196E+04   -0.83090E-02   -0.31706E-03  2407   0.101E-01    0.222E+00
RMM: 120    -0.109176682453E+04   -0.13353E-01   -0.33797E-03  2147   0.109E-01
   3 F= -.11003402E+04 E0= -.11003264E+04  d E =-.125577E+02  mag=    -2.1400
       N       E                     dE             d eps       ncg     rms          rms(c)
DAV:   1    -0.110004844309E+04   -0.82950E+01   -0.69374E+02  2076   0.615E+01    0.164E+01
RMM:   2    -0.110321180562E+04   -0.31634E+01   -0.21137E+01  2161   0.110E+01    0.248E+01
RMM:   3    -0.110782743181E+04   -0.46156E+01   -0.82852E+00  2382   0.683E+00    0.461E+01
RMM:   4    -0.110373735048E+04    0.40901E+01   -0.35344E+00  2327   0.426E+00    0.240E+01
RMM:   5    -0.110281609496E+04    0.92126E+00   -0.20414E+00  2226   0.300E+00    0.249E+01
RMM:   6    -0.110373519978E+04   -0.91910E+00   -0.14551E+00  2231   0.238E+00    0.280E+01
RMM:   7    -0.110176497745E+04    0.19702E+01   -0.11970E+00  2141   0.232E+00    0.159E+01
RMM:   8    -0.110240312988E+04   -0.63815E+00   -0.59102E-01  2189   0.155E+00    0.205E+01
RMM:   9    -0.110211356425E+04    0.28957E+00   -0.50213E-01  2161   0.144E+00    0.150E+01
RMM:  10    -0.110194711322E+04    0.16645E+00   -0.35590E-01  2154   0.127E+00    0.134E+01
RMM:  11    -0.110218705847E+04   -0.23995E+00   -0.38845E-01  2157   0.130E+00    0.145E+01
RMM:  12    -0.110199292747E+04    0.19413E+00   -0.40271E-01  2168   0.137E+00    0.104E+01
RMM:  13    -0.110207690992E+04   -0.83982E-01   -0.29736E-01  2172   0.116E+00    0.101E+01
RMM:  14    -0.110198589345E+04    0.91016E-01   -0.17951E-01  2202   0.809E-01    0.915E+00
RMM:  15    -0.110187330443E+04    0.11259E+00   -0.79282E-02  2229   0.575E-01    0.540E+00
RMM:  16    -0.110188760309E+04   -0.14299E-01   -0.21280E-02  2340   0.278E-01    0.479E+00
RMM:  17    -0.110191410528E+04   -0.26502E-01   -0.17696E-02  2289   0.239E-01    0.530E+00
RMM:  18    -0.110191609781E+04   -0.19925E-02   -0.53053E-03  2250   0.142E-01    0.543E+00
RMM:  19    -0.110193902538E+04   -0.22928E-01   -0.22829E-02  2161   0.319E-01    0.656E+00
RMM:  20    -0.110206091989E+04   -0.12189E+00   -0.85524E-02  2223   0.585E-01    0.850E+00
RMM:  21    -0.110204055360E+04    0.20366E-01   -0.85052E-02  2230   0.602E-01    0.796E+00
RMM:  22    -0.110200139174E+04    0.39162E-01   -0.29383E-02  2240   0.344E-01    0.619E+00
RMM:  23    -0.110208208227E+04   -0.80691E-01   -0.16054E-02  2347   0.244E-01    0.681E+00
RMM:  24    -0.110211702888E+04   -0.34947E-01   -0.13815E-02  2294   0.213E-01    0.702E+00
RMM:  25    -0.110211793454E+04   -0.90566E-03   -0.10697E-02  2349   0.193E-01    0.663E+00
RMM:  26    -0.110214276813E+04   -0.24834E-01   -0.67560E-03  2349   0.147E-01    0.703E+00
RMM:  27    -0.110214519418E+04   -0.24260E-02   -0.25456E-03  2367   0.916E-02    0.697E+00
RMM:  28    -0.110214560634E+04   -0.41216E-03   -0.21236E-03  2344   0.799E-02    0.690E+00
RMM:  29    -0.110214690187E+04   -0.12955E-02   -0.33525E-03  2193   0.109E-01    0.696E+00
RMM:  30    -0.110215469990E+04   -0.77980E-02   -0.38332E-03  2299   0.113E-01    0.698E+00
RMM:  31    -0.110215774228E+04   -0.30424E-02   -0.24644E-03  2416   0.870E-02    0.689E+00
RMM:  32    -0.110216608518E+04   -0.83429E-02   -0.13739E-03  2468   0.579E-02    0.694E+00
RMM:  33    -0.110216828862E+04   -0.22034E-02   -0.99764E-04  2442   0.516E-02    0.694E+00
RMM:  34    -0.110216914053E+04   -0.85190E-03   -0.17955E-03  2292   0.750E-02    0.700E+00
RMM:  35    -0.110216878820E+04    0.35232E-03   -0.15094E-03  2322   0.708E-02    0.705E+00
RMM:  36    -0.110216630971E+04    0.24785E-02   -0.69823E-04  2477   0.471E-02    0.683E+00
RMM:  37    -0.110216315406E+04    0.31556E-02   -0.48464E-04  2539   0.335E-02    0.643E+00
RMM:  38    -0.110216602743E+04   -0.28734E-02   -0.16087E-04  2013   0.281E-02    0.632E+00
RMM:  39    -0.110217203707E+04   -0.60096E-02   -0.12745E-04  2116   0.219E-02    0.651E+00
RMM:  40    -0.110217742495E+04   -0.53879E-02   -0.16531E-04  2305   0.255E-02    0.694E+00
RMM:  41    -0.110217986349E+04   -0.24385E-02   -0.53039E-04  2139   0.501E-02    0.748E+00
RMM:  42    -0.110217892334E+04    0.94015E-03   -0.98932E-04  2164   0.661E-02    0.799E+00
RMM:  43    -0.110216909659E+04    0.98267E-02   -0.71551E-04  2318   0.541E-02    0.806E+00
RMM:  44    -0.110216026224E+04    0.88344E-02   -0.58432E-04  2499   0.419E-02    0.783E+00
RMM:  45    -0.110215075698E+04    0.95053E-02   -0.23612E-03  2268   0.890E-02    0.722E+00
RMM:  46    -0.110214630579E+04    0.44512E-02   -0.42414E-03  2257   0.119E-01    0.730E+00
RMM:  47    -0.110216943981E+04   -0.23134E-01   -0.15658E-03  2470   0.670E-02    0.843E+00
RMM:  48    -0.110215866659E+04    0.10773E-01   -0.86114E-04  2238   0.598E-02    0.844E+00
RMM:  49    -0.110215719762E+04    0.14690E-02   -0.19224E-04  2256   0.261E-02    0.874E+00
RMM:  50    -0.110213806147E+04    0.19136E-01   -0.32477E-04  2201   0.361E-02    0.791E+00
RMM:  51    -0.110214551416E+04   -0.74527E-02   -0.17847E-04  1953   0.336E-02    0.782E+00
RMM:  52    -0.110218562962E+04   -0.40115E-01   -0.12012E-03  2241   0.650E-02    0.932E+00
RMM:  53    -0.110216684298E+04    0.18787E-01   -0.69205E-04  2086   0.680E-02    0.938E+00
RMM:  54    -0.110216471610E+04    0.21269E-02   -0.14986E-04  2194   0.276E-02    0.955E+00
RMM:  55    -0.110216137072E+04    0.33454E-02   -0.44214E-05  1965   0.160E-02    0.959E+00
RMM:  56    -0.110216043184E+04    0.93888E-03   -0.13279E-05  1690   0.753E-03    0.962E+00
RMM:  57    -0.110216173582E+04   -0.13040E-02   -0.54038E-04  2133   0.460E-02    0.967E+00
RMM:  58    -0.110216263583E+04   -0.90001E-03   -0.55206E-04  2064   0.534E-02    0.955E+00
RMM:  59    -0.110216277244E+04   -0.13661E-03   -0.69209E-04  2099   0.545E-02    0.928E+00
RMM:  60    -0.110217151951E+04   -0.87471E-02   -0.26863E-04  2154   0.342E-02    0.940E+00
RMM:  61    -0.110217415893E+04   -0.26394E-02   -0.33201E-04  2347   0.300E-02    0.926E+00
RMM:  62    -0.110168769175E+04    0.48647E+00   -0.63648E-01  2195   0.155E+00    0.162E+01
RMM:  63    -0.110227869348E+04   -0.59100E+00   -0.35249E-01  2047   0.136E+00    0.746E+00
RMM:  64    -0.110228080790E+04   -0.21144E-02   -0.66673E-02  2229   0.588E-01    0.725E+00
RMM:  65    -0.110228709731E+04   -0.62894E-02   -0.13069E-02  2464   0.232E-01    0.726E+00
RMM:  66    -0.110227943261E+04    0.76647E-02   -0.28860E-03  2262   0.110E-01    0.736E+00
RMM:  67    -0.110227823342E+04    0.11992E-02   -0.26200E-03  2323   0.951E-02    0.716E+00
RMM:  68    -0.110226539706E+04    0.12836E-01   -0.66624E-03  2232   0.165E-01    0.746E+00
RMM:  69    -0.110223385185E+04    0.31545E-01   -0.49434E-03  2404   0.130E-01    0.724E+00
RMM:  70    -0.110220696794E+04    0.26884E-01   -0.49815E-03  2400   0.126E-01    0.684E+00
RMM:  71    -0.110218574635E+04    0.21222E-01   -0.56500E-03  2377   0.139E-01    0.590E+00
RMM:  72    -0.110216682032E+04    0.18926E-01   -0.50907E-03  2219   0.142E-01    0.407E+00
RMM:  73    -0.110219873393E+04   -0.31914E-01   -0.24018E-03  2119   0.115E-01    0.517E+00
RMM:  74    -0.110220788365E+04   -0.91497E-02   -0.13814E-03  2381   0.685E-02    0.578E+00
RMM:  75    -0.110220312491E+04    0.47587E-02   -0.12289E-03  2225   0.651E-02    0.561E+00
RMM:  76    -0.110220396872E+04   -0.84381E-03   -0.35475E-04  2132   0.389E-02    0.560E+00
RMM:  77    -0.110219749702E+04    0.64717E-02   -0.83924E-04  2138   0.634E-02    0.550E+00
RMM:  78    -0.110220143917E+04   -0.39421E-02   -0.46318E-04  2422   0.366E-02    0.582E+00
RMM:  79    -0.110219806662E+04    0.33725E-02   -0.28171E-04  2320   0.301E-02    0.579E+00
RMM:  80    -0.110219158565E+04    0.64810E-02   -0.33420E-04  2315   0.294E-02    0.548E+00
RMM:  81    -0.110219412338E+04   -0.25377E-02   -0.97804E-05  2046   0.210E-02    0.549E+00
RMM:  82    -0.110219771635E+04   -0.35930E-02   -0.19319E-02  2123   0.268E-01    0.536E+00
RMM:  83    -0.110218081077E+04    0.16906E-01   -0.48445E-03  2392   0.138E-01    0.380E+00
RMM:  84    -0.110218390211E+04   -0.30913E-02   -0.35062E-03  2403   0.113E-01    0.358E+00
RMM:  85    -0.110218283764E+04    0.10645E-02   -0.56349E-03  2372   0.122E-01    0.372E+00
RMM:  86    -0.110217736956E+04    0.54681E-02   -0.38623E-03  2548   0.910E-02    0.373E+00
RMM:  87    -0.110219736751E+04   -0.19998E-01   -0.18208E-02  2267   0.230E-01    0.565E+00
RMM:  88    -0.110220439083E+04   -0.70233E-02   -0.31772E-02  2076   0.402E-01    0.417E+00
RMM:  89    -0.110220219676E+04    0.21941E-02   -0.18352E-02  2285   0.265E-01    0.452E+00
RMM:  90    -0.110219711892E+04    0.50778E-02   -0.56348E-03  2468   0.138E-01    0.428E+00
RMM:  91    -0.110219378801E+04    0.33309E-02   -0.22237E-03  2490   0.700E-02    0.424E+00
RMM:  92    -0.110219599146E+04   -0.22035E-02   -0.11845E-03  2223   0.663E-02    0.408E+00
RMM:  93    -0.110219618236E+04   -0.19090E-03   -0.59097E-04  2325   0.468E-02    0.398E+00
RMM:  94    -0.110219668350E+04   -0.50114E-03   -0.18828E-04  2317   0.217E-02    0.393E+00
RMM:  95    -0.110219608047E+04    0.60303E-03   -0.67718E-05  1982   0.181E-02    0.388E+00
RMM:  96    -0.110219730857E+04   -0.12281E-02   -0.34956E-05  1910   0.115E-02    0.391E+00
RMM:  97    -0.110213441955E+04    0.62889E-01   -0.36331E-02  2076   0.386E-01    0.453E+00
RMM:  98    -0.110215324121E+04   -0.18822E-01   -0.15111E-02  2408   0.218E-01    0.412E+00
RMM:  99    -0.110216534898E+04   -0.12108E-01   -0.56846E-03  2475   0.141E-01    0.414E+00
RMM: 100    -0.110218168521E+04   -0.16336E-01   -0.33890E-03  2325   0.113E-01    0.545E+00
RMM: 101    -0.110218175959E+04   -0.74379E-04   -0.37302E-03  2142   0.126E-01    0.527E+00
RMM: 102    -0.110216563951E+04    0.16120E-01   -0.12696E-02  2261   0.220E-01    0.440E+00
RMM: 103    -0.110217296996E+04   -0.73305E-02   -0.10622E-02  2240   0.241E-01    0.395E+00
RMM: 104    -0.110216547324E+04    0.74967E-02   -0.37103E-03  2398   0.126E-01    0.372E+00
RMM: 105    -0.110219804672E+04   -0.32573E-01   -0.81403E-03  2262   0.177E-01    0.638E+00
RMM: 106    -0.110219023009E+04    0.78166E-02   -0.16110E-02  2064   0.311E-01    0.496E+00
RMM: 107    -0.110216980028E+04    0.20430E-01   -0.10662E-02  2139   0.237E-01    0.333E+00
RMM: 108    -0.110216374956E+04    0.60507E-02   -0.27338E-03  2146   0.124E-01    0.364E+00
RMM: 109    -0.110215680877E+04    0.69408E-02   -0.18866E-03  2367   0.896E-02    0.402E+00
RMM: 110    -0.110214843543E+04    0.83733E-02   -0.21254E-03  2268   0.926E-02    0.385E+00
RMM: 111    -0.110214868405E+04   -0.24862E-03   -0.18232E-03  2163   0.970E-02    0.341E+00
RMM: 112    -0.110214517355E+04    0.35105E-02   -0.13627E-03  2258   0.746E-02    0.359E+00
RMM: 113    -0.110214462045E+04    0.55310E-03   -0.11290E-03  2105   0.775E-02    0.300E+00
RMM: 114    -0.110214304644E+04    0.15740E-02   -0.40675E-04  2088   0.447E-02    0.323E+00
RMM: 115    -0.110214228863E+04    0.75781E-03   -0.29435E-04  2233   0.325E-02    0.297E+00
RMM: 116    -0.110214272978E+04   -0.44115E-03   -0.20019E-04  2357   0.264E-02    0.313E+00
RMM: 117    -0.110221526890E+04   -0.72539E-01   -0.14066E-02  2214   0.223E-01    0.737E+00
RMM: 118    -0.110217286367E+04    0.42405E-01   -0.20569E-02  2069   0.353E-01    0.477E+00
RMM: 119    -0.110215381348E+04    0.19050E-01   -0.10441E-02  2153   0.222E-01    0.332E+00
RMM: 120    -0.110216365895E+04   -0.98455E-02   -0.16148E-03  2425   0.844E-02
   4 F= -.11107206E+04 E0= -.11107076E+04  d E =-.229381E+02  mag=    -0.9006
       N       E                     dE             d eps       ncg     rms          rms(c)
DAV:   1    -0.110314391319E+04   -0.99010E+00   -0.24238E+02  2064   0.363E+01    0.942E+00
RMM:   2    -0.110947201814E+04   -0.63281E+01   -0.10610E+01  2086   0.793E+00    0.420E+01
RMM:   3    -0.110487532083E+04    0.45967E+01   -0.34926E+00  2347   0.446E+00    0.208E+01
RMM:   4    -0.110432444867E+04    0.55087E+00   -0.14450E+00  2365   0.249E+00    0.197E+01
RMM:   5    -0.110390278390E+04    0.42166E+00   -0.69620E-01  2237   0.182E+00    0.153E+01
RMM:   6    -0.110415979925E+04   -0.25702E+00   -0.37220E-01  2198   0.136E+00    0.162E+01
RMM:   7    -0.110383306658E+04    0.32673E+00   -0.26695E-01  2254   0.108E+00    0.139E+01
RMM:   8    -0.110392022209E+04   -0.87156E-01   -0.27724E-01  2197   0.106E+00    0.153E+01
RMM:   9    -0.110370049661E+04    0.21973E+00   -0.19391E-01  2134   0.984E-01    0.916E+00
RMM:  10    -0.110375941366E+04   -0.58917E-01   -0.80032E-02  2229   0.603E-01    0.887E+00
RMM:  11    -0.110373565511E+04    0.23759E-01   -0.42884E-02  2317   0.404E-01    0.752E+00
RMM:  12    -0.110372978661E+04    0.58685E-02   -0.60181E-02  2187   0.480E-01    0.743E+00
RMM:  13    -0.110367093207E+04    0.58855E-01   -0.29454E-02  2199   0.350E-01    0.503E+00
RMM:  14    -0.110364467333E+04    0.26259E-01   -0.64292E-02  2267   0.481E-01    0.552E+00
RMM:  15    -0.110361903063E+04    0.25643E-01   -0.52752E-02  2287   0.448E-01    0.502E+00
RMM:  16    -0.110360577101E+04    0.13260E-01   -0.48673E-02  2263   0.440E-01    0.743E+00
RMM:  17    -0.110368159449E+04   -0.75823E-01   -0.83230E-02  2188   0.556E-01    0.102E+01
RMM:  18    -0.110372665956E+04   -0.45065E-01   -0.11032E-01  2130   0.681E-01    0.100E+01
RMM:  19    -0.110368946960E+04    0.37190E-01   -0.43485E-02  2181   0.429E-01    0.867E+00
RMM:  20    -0.110366721214E+04    0.22257E-01   -0.13928E-02  2359   0.200E-01    0.748E+00
RMM:  21    -0.110365883192E+04    0.83802E-02   -0.24426E-02  2318   0.268E-01    0.347E+00
RMM:  22    -0.110369037005E+04   -0.31538E-01   -0.45228E-02  2130   0.479E-01    0.469E+00
RMM:  23    -0.110364666726E+04    0.43703E-01   -0.30467E-02  2262   0.353E-01    0.349E+00
RMM:  24    -0.110363440229E+04    0.12265E-01   -0.15221E-02  2387   0.240E-01    0.284E+00
RMM:  25    -0.110364472078E+04   -0.10318E-01   -0.82081E-03  2275   0.184E-01    0.229E+00
RMM:  26    -0.110365429427E+04   -0.95735E-02   -0.31449E-03  2323   0.108E-01    0.214E+00
RMM:  27    -0.110366161559E+04   -0.73213E-02   -0.93825E-04  2442   0.545E-02    0.217E+00
RMM:  28    -0.110367245748E+04   -0.10842E-01   -0.77412E-04  2302   0.498E-02    0.199E+00
RMM:  29    -0.110369408190E+04   -0.21624E-01   -0.28786E-03  2150   0.988E-02    0.129E+00
RMM:  30    -0.110371631561E+04   -0.22234E-01   -0.32133E-03  2335   0.107E-01    0.968E-01
RMM:  31    -0.110374445649E+04   -0.28141E-01   -0.29816E-03  2330   0.100E-01    0.108E+00
RMM:  32    -0.110377207522E+04   -0.27619E-01   -0.22973E-03  2401   0.789E-02    0.711E-01
RMM:  33    -0.110379667849E+04   -0.24603E-01   -0.21118E-03  2286   0.763E-02    0.709E-01
RMM:  34    -0.110381598175E+04   -0.19303E-01   -0.20324E-03  2358   0.751E-02    0.667E-01
RMM:  35    -0.110383319147E+04   -0.17210E-01   -0.17487E-03  2409   0.641E-02    0.754E-01
RMM:  36    -0.110384570535E+04   -0.12514E-01   -0.11578E-03  2322   0.533E-02    0.805E-01
RMM:  37    -0.110385162891E+04   -0.59236E-02   -0.69017E-04  2440   0.432E-02    0.668E-01
RMM:  38    -0.110385753980E+04   -0.59109E-02   -0.62207E-04  2332   0.410E-02    0.483E-01
RMM:  39    -0.110386385154E+04   -0.63117E-02   -0.59055E-04  2325   0.372E-02    0.326E-01
RMM:  40    -0.110386937201E+04   -0.55205E-02   -0.54935E-04  2302   0.378E-02    0.295E-01
RMM:  41    -0.110387428566E+04   -0.49136E-02   -0.55307E-04  2386   0.329E-02    0.187E-01
RMM:  42    -0.110387605506E+04   -0.17694E-02   -0.18538E-04  2320   0.210E-02    0.125E-01
RMM:  43    -0.110387702467E+04   -0.96961E-03   -0.93145E-05  2165   0.158E-02    0.155E-01
RMM:  44    -0.110387826196E+04   -0.12373E-02   -0.90317E-05  2172   0.155E-02    0.139E-01
RMM:  45    -0.110387993558E+04   -0.16736E-02   -0.14204E-04  2231   0.171E-02    0.767E-02
RMM:  46    -0.110388069416E+04   -0.75858E-03   -0.66404E-05  2167   0.116E-02    0.812E-02
RMM:  47    -0.110388141300E+04   -0.71884E-03   -0.55833E-05  2091   0.949E-03    0.998E-02
RMM:  48    -0.110388165823E+04   -0.24522E-03   -0.20732E-05  1831   0.778E-03    0.437E-02
RMM:  49    -0.110388203220E+04   -0.37397E-03   -0.24465E-05  1876   0.605E-03    0.248E-02
RMM:  50    -0.110388233212E+04   -0.29993E-03   -0.22874E-05  1944   0.644E-03    0.105E-02
RMM:  51    -0.110388243528E+04   -0.10316E-03   -0.79950E-06  1570   0.345E-03    0.106E-02
RMM:  52    -0.110388252623E+04   -0.90950E-04   -0.76167E-06  1549   0.346E-03    0.989E-03
RMM:  53    -0.110388256843E+04   -0.42196E-04   -0.41431E-06  1431   0.268E-03    0.105E-02
RMM:  54    -0.110388259542E+04   -0.26987E-04   -0.38945E-06  1405   0.263E-03    0.671E-03
RMM:  55    -0.110388260283E+04   -0.74180E-05   -0.14392E-06  1234   0.195E-03    0.732E-03
RMM:  56    -0.110388260562E+04   -0.27867E-05   -0.95570E-07  1143   0.148E-03    0.546E-03
RMM:  57    -0.110388260737E+04   -0.17507E-05   -0.72162E-07  1106   0.134E-03    0.568E-03
RMM:  58    -0.110388260692E+04    0.44798E-06   -0.99274E-07  1167   0.142E-03
   5 F= -.11124314E+04 E0= -.11124156E+04  d E =-.246489E+02  mag=     0.2907
       N       E                     dE             d eps       ncg     rms          rms(c)
DAV:   1    -0.102517299867E+04    0.78710E+02   -0.13675E+04  2100   0.288E+02    0.920E+01
RMM:   2    -0.115341049096E+04   -0.12824E+03   -0.10424E+03  2472   0.742E+01    0.101E+02
RMM:   3    -0.129531400244E+04   -0.14190E+03   -0.48281E+02  2732   0.425E+01    0.190E+02
RMM:   4    -0.119929101786E+04    0.96023E+02   -0.67364E+01  2120   0.215E+01    0.106E+02
RMM:   5    -0.121262555854E+04   -0.13335E+02   -0.42922E+01  2047   0.170E+01    0.132E+02
RMM:   6    -0.113403447331E+04    0.78591E+02   -0.38075E+01  2144   0.140E+01    0.729E+01
RMM:   7    -0.112404398686E+04    0.99905E+01   -0.25740E+01  2099   0.112E+01    0.739E+01
RMM:   8    -0.112447262889E+04   -0.42864E+00   -0.13525E+01  2241   0.751E+00    0.674E+01
RMM:   9    -0.111660696665E+04    0.78657E+01   -0.67899E+00  2166   0.549E+00    0.484E+01
RMM:  10    -0.111462796776E+04    0.19790E+01   -0.64144E+00  2222   0.515E+00    0.456E+01
RMM:  11    -0.111526878298E+04   -0.64082E+00   -0.40305E+00  2206   0.404E+00    0.434E+01
RMM:  12    -0.111303492141E+04    0.22339E+01   -0.35541E+00  2102   0.388E+00    0.354E+01
RMM:  13    -0.111238862229E+04    0.64630E+00   -0.16222E+00  2246   0.256E+00    0.303E+01
RMM:  14    -0.111237889220E+04    0.97301E-02   -0.14689E+00  2277   0.248E+00    0.299E+01
RMM:  15    -0.111279616982E+04   -0.41728E+00   -0.14727E+00  2343   0.241E+00    0.321E+01
RMM:  16    -0.111159938728E+04    0.11968E+01   -0.18278E+00  2243   0.274E+00    0.226E+01
RMM:  17    -0.111120804540E+04    0.39134E+00   -0.16790E+00  2351   0.265E+00    0.205E+01
RMM:  18    -0.111069745544E+04    0.51059E+00   -0.61999E-01  2340   0.155E+00    0.162E+01
RMM:  19    -0.111170972915E+04   -0.10123E+01   -0.13782E+00  2205   0.242E+00    0.236E+01
RMM:  20    -0.111046453813E+04    0.12452E+01   -0.15142E+00  2242   0.254E+00    0.175E+01
RMM:  21    -0.111060002473E+04   -0.13549E+00   -0.92142E-01  2347   0.195E+00    0.196E+01
RMM:  22    -0.111037873552E+04    0.22129E+00   -0.31485E-01  2401   0.111E+00    0.170E+01
RMM:  23    -0.111032256662E+04    0.56169E-01   -0.19037E-01  2316   0.799E-01    0.140E+01
RMM:  24    -0.111029860774E+04    0.23959E-01   -0.25487E-01  2248   0.104E+00    0.120E+01
RMM:  25    -0.111037621094E+04   -0.77603E-01   -0.91257E-02  2414   0.579E-01    0.108E+01
RMM:  26    -0.111045154920E+04   -0.75338E-01   -0.53030E-02  2211   0.453E-01    0.120E+01
RMM:  27    -0.111042044237E+04    0.31107E-01   -0.35169E-02  2220   0.387E-01    0.105E+01
RMM:  28    -0.111050994338E+04   -0.89501E-01   -0.91427E-02  2135   0.574E-01    0.855E+00
RMM:  29    -0.111061449431E+04   -0.10455E+00   -0.11072E-01  2289   0.639E-01    0.688E+00
RMM:  30    -0.111074459272E+04   -0.13010E+00   -0.51198E-02  2198   0.462E-01    0.723E+00
RMM:  31    -0.111079849961E+04   -0.53907E-01   -0.29428E-02  2189   0.348E-01    0.589E+00
RMM:  32    -0.111093340618E+04   -0.13491E+00   -0.32778E-02  2286   0.341E-01    0.550E+00
RMM:  33    -0.111105907270E+04   -0.12567E+00   -0.28805E-02  2207   0.326E-01    0.507E+00
RMM:  34    -0.111125682443E+04   -0.19775E+00   -0.58590E-02  2373   0.390E-01    0.371E+00
RMM:  35    -0.111136019881E+04   -0.10337E+00   -0.39580E-02  2509   0.321E-01    0.310E+00
RMM:  36    -0.111141005146E+04   -0.49853E-01   -0.19546E-02  2484   0.239E-01    0.253E+00
RMM:  37    -0.111144104776E+04   -0.30996E-01   -0.10585E-02  2535   0.148E-01    0.211E+00
RMM:  38    -0.111146916344E+04   -0.28116E-01   -0.75596E-03  2502   0.132E-01    0.173E+00
RMM:  39    -0.111148233653E+04   -0.13173E-01   -0.47128E-03  2482   0.114E-01    0.146E+00
RMM:  40    -0.111149726253E+04   -0.14926E-01   -0.45085E-03  2450   0.110E-01    0.124E+00
RMM:  41    -0.111151583478E+04   -0.18572E-01   -0.37640E-03  2563   0.868E-02    0.100E+00
RMM:  42    -0.111152816106E+04   -0.12326E-01   -0.32073E-03  2564   0.785E-02    0.796E-01
RMM:  43    -0.111153874609E+04   -0.10585E-01   -0.24211E-03  2623   0.696E-02    0.633E-01
RMM:  44    -0.111154316376E+04   -0.44177E-02   -0.13020E-03  2502   0.607E-02    0.540E-01
RMM:  45    -0.111155184436E+04   -0.86806E-02   -0.13497E-03  2561   0.509E-02    0.445E-01
RMM:  46    -0.111155738207E+04   -0.55377E-02   -0.56876E-04  2625   0.321E-02    0.485E-01
RMM:  47    -0.111156200198E+04   -0.46199E-02   -0.56289E-04  2556   0.359E-02    0.650E-01
RMM:  48    -0.111156346122E+04   -0.14592E-02   -0.17211E-04  2394   0.231E-02    0.709E-01
RMM:  49    -0.111156621536E+04   -0.27541E-02   -0.17810E-04  2468   0.196E-02    0.882E-01
RMM:  50    -0.111156544326E+04    0.77210E-03   -0.36440E-05  1844   0.134E-02    0.851E-01
RMM:  51    -0.111156559523E+04   -0.15196E-03   -0.10737E-05  1605   0.447E-03    0.874E-01
RMM:  52    -0.111156752066E+04   -0.19254E-02   -0.70456E-04  2099   0.503E-02    0.563E-01
RMM:  53    -0.111156968589E+04   -0.21652E-02   -0.29895E-04  2315   0.330E-02    0.553E-01
RMM:  54    -0.111157109521E+04   -0.14093E-02   -0.27174E-04  2482   0.251E-02    0.408E-01
RMM:  55    -0.111157211035E+04   -0.10151E-02   -0.10056E-04  2364   0.175E-02    0.319E-01
RMM:  56    -0.111157374531E+04   -0.16350E-02   -0.12549E-04  2431   0.156E-02    0.253E-01
RMM:  57    -0.111157567883E+04   -0.19335E-02   -0.12725E-04  2379   0.171E-02    0.186E-01
RMM:  58    -0.111157650058E+04   -0.82176E-03   -0.47987E-05  2068   0.101E-02    0.136E-01
RMM:  59    -0.111157834847E+04   -0.18479E-02   -0.69905E-05  2158   0.981E-03    0.143E-01
RMM:  60    -0.111158014949E+04   -0.18010E-02   -0.88133E-05  2301   0.103E-02    0.152E-01
RMM:  61    -0.111158193459E+04   -0.17851E-02   -0.11608E-04  2216   0.107E-02    0.142E-01
RMM:  62    -0.111158319892E+04   -0.12643E-02   -0.10879E-04  2327   0.118E-02    0.143E-01
RMM:  63    -0.111158366149E+04   -0.46257E-03   -0.36263E-05  1997   0.650E-03    0.150E-01
RMM:  64    -0.111158422065E+04   -0.55916E-03   -0.43566E-05  2056   0.657E-03    0.147E-01
RMM:  65    -0.111158453059E+04   -0.30994E-03   -0.24628E-05  1889   0.540E-03    0.138E-01
RMM:  66    -0.111158482461E+04   -0.29402E-03   -0.44811E-05  2048   0.765E-03    0.101E-01
RMM:  67    -0.111158464807E+04    0.17654E-03   -0.74750E-05  2253   0.139E-02    0.752E-02
RMM:  68    -0.111158487904E+04   -0.23098E-03   -0.17549E-05  1745   0.821E-03    0.660E-02
RMM:  69    -0.111158497372E+04   -0.94679E-04   -0.11653E-05  1738   0.474E-03    0.490E-02
RMM:  70    -0.111158492984E+04    0.43880E-04   -0.78854E-06  1627   0.444E-03    0.454E-02
RMM:  71    -0.111158497480E+04   -0.44957E-04   -0.52765E-06  1540   0.391E-03    0.362E-02
RMM:  72    -0.111158485638E+04    0.11841E-03   -0.35888E-05  2154   0.786E-03    0.175E-02
RMM:  73    -0.111158488406E+04   -0.27675E-04   -0.33930E-06  1403   0.388E-03    0.985E-03
RMM:  74    -0.111158496333E+04   -0.79268E-04   -0.23184E-06  1322   0.233E-03    0.976E-03
RMM:  75    -0.111158506467E+04   -0.10135E-03   -0.29209E-06  1374   0.243E-03    0.859E-03
RMM:  76    -0.111158514206E+04   -0.77382E-04   -0.31923E-06  1395   0.202E-03    0.516E-03
RMM:  77    -0.111158519455E+04   -0.52498E-04   -0.26217E-06  1342   0.189E-03    0.262E-03
RMM:  78    -0.111158522888E+04   -0.34328E-04   -0.23330E-06  1306   0.178E-03    0.293E-03
RMM:  79    -0.111158525277E+04   -0.23885E-04   -0.18994E-06  1257   0.166E-03    0.216E-03
RMM:  80    -0.111158526631E+04   -0.13544E-04   -0.13366E-06  1158   0.148E-03    0.204E-03
RMM:  81    -0.111158527308E+04   -0.67662E-05   -0.93174E-07  1087   0.127E-03    0.152E-03
RMM:  82    -0.111158527894E+04   -0.58685E-05   -0.79158E-07  1060   0.112E-03    0.111E-03
RMM:  83    -0.111158528177E+04   -0.28222E-05   -0.57745E-07  1013   0.104E-03    0.952E-04
RMM:  84    -0.111158528360E+04   -0.18356E-05   -0.46302E-07   970   0.858E-04    0.562E-04
RMM:  85    -0.111158528467E+04   -0.10709E-05   -0.35142E-07   945   0.808E-04    0.251E-04
RMM:  86    -0.111158528519E+04   -0.51596E-06   -0.26378E-07   880   0.673E-04
   6 F= -.11204062E+04 E0= -.11204000E+04  d E =-.797478E+01  mag=     2.0139
       N       E                     dE             d eps       ncg     rms          rms(c)
DAV:   1    -0.111109353868E+04    0.49175E+00   -0.26333E+03  1992   0.122E+02    0.194E+01
RMM:   2    -0.112042556647E+04   -0.93320E+01   -0.76740E+01  2189   0.217E+01    0.310E+01
RMM:   3    -0.112678085453E+04   -0.63553E+01   -0.22352E+01  2481   0.992E+00    0.437E+01
RMM:   4    -0.112485697691E+04    0.19239E+01   -0.62791E+00  2279   0.561E+00    0.435E+01
RMM:   5    -0.112017535583E+04    0.46816E+01   -0.27313E+00  2301   0.356E+00    0.193E+01
RMM:   6    -0.112022851727E+04   -0.53161E-01   -0.17055E+00  2242   0.257E+00    0.212E+01
RMM:   7    -0.112060250407E+04   -0.37399E+00   -0.15136E+00  2274   0.236E+00    0.186E+01
RMM:   8    -0.112002819972E+04    0.57430E+00   -0.10501E+00  2233   0.210E+00    0.149E+01
RMM:   9    -0.111983463882E+04    0.19356E+00   -0.63373E-01  2232   0.162E+00    0.104E+01
RMM:  10    -0.112016004064E+04   -0.32540E+00   -0.62830E-01  2196   0.153E+00    0.119E+01
RMM:  11    -0.111985047816E+04    0.30956E+00   -0.42215E-01  2246   0.136E+00    0.659E+00
RMM:  12    -0.111983182548E+04    0.18653E-01   -0.22141E-01  2237   0.101E+00    0.568E+00
RMM:  13    -0.111992395950E+04   -0.92134E-01   -0.22696E-01  2305   0.926E-01    0.113E+01
RMM:  14    -0.111976767086E+04    0.15629E+00   -0.18235E-01  2258   0.812E-01    0.511E+00
RMM:  15    -0.111980664387E+04   -0.38973E-01   -0.13243E-01  2190   0.745E-01    0.529E+00
RMM:  16    -0.111975037596E+04    0.56268E-01   -0.82177E-02  2215   0.572E-01    0.268E+00
RMM:  17    -0.111974000179E+04    0.10374E-01   -0.39603E-02  2237   0.420E-01    0.176E+00
RMM:  18    -0.111973218239E+04    0.78194E-02   -0.15534E-02  2396   0.236E-01    0.118E+00
RMM:  19    -0.111973081467E+04    0.13677E-02   -0.43537E-03  2413   0.124E-01    0.805E-01
RMM:  20    -0.111973056547E+04    0.24920E-03   -0.40812E-03  2372   0.115E-01    0.621E-01
RMM:  21    -0.111973009646E+04    0.46901E-03   -0.47971E-03  2306   0.132E-01    0.716E-01
RMM:  22    -0.111972998748E+04    0.10899E-03   -0.20702E-03  2214   0.931E-02    0.863E-01
RMM:  23    -0.111972965240E+04    0.33508E-03   -0.62622E-04  2282   0.493E-02    0.788E-01
RMM:  24    -0.111972968559E+04   -0.33192E-04   -0.10794E-03  2202   0.606E-02    0.534E-01
RMM:  25    -0.111973000492E+04   -0.31933E-03   -0.13049E-03  2105   0.795E-02    0.484E-01
RMM:  26    -0.111972923109E+04    0.77383E-03   -0.56449E-04  2320   0.496E-02    0.251E-01
RMM:  27    -0.111972943364E+04   -0.20255E-03   -0.37702E-04  2290   0.397E-02    0.447E-01
RMM:  28    -0.111972939444E+04    0.39208E-04   -0.20046E-04  2179   0.293E-02    0.230E-01
RMM:  29    -0.111972973228E+04   -0.33784E-03   -0.95535E-05  2121   0.196E-02    0.998E-02
RMM:  30    -0.111973005613E+04   -0.32385E-03   -0.52370E-05  2006   0.139E-02    0.967E-02
RMM:  31    -0.111973024501E+04   -0.18888E-03   -0.49859E-05  1892   0.143E-02    0.857E-02
RMM:  32    -0.111973054391E+04   -0.29890E-03   -0.34709E-05  1933   0.113E-02    0.598E-02
RMM:  33    -0.111973113185E+04   -0.58794E-03   -0.31819E-05  1959   0.833E-03    0.386E-02
RMM:  34    -0.111973151640E+04   -0.38455E-03   -0.18070E-05  1836   0.655E-03    0.464E-02
RMM:  35    -0.111973176367E+04   -0.24727E-03   -0.11354E-05  1686   0.549E-03    0.256E-02
RMM:  36    -0.111973200008E+04   -0.23641E-03   -0.91546E-06  1645   0.487E-03    0.269E-02
RMM:  37    -0.111973228064E+04   -0.28055E-03   -0.11347E-05  1795   0.448E-03    0.259E-02
RMM:  38    -0.111973253379E+04   -0.25316E-03   -0.12661E-05  1866   0.430E-03    0.144E-02
RMM:  39    -0.111973267489E+04   -0.14110E-03   -0.77853E-06  1675   0.361E-03    0.135E-02
RMM:  40    -0.111973273692E+04   -0.62028E-04   -0.36953E-06  1434   0.298E-03    0.742E-03
RMM:  41    -0.111973280198E+04   -0.65061E-04   -0.43826E-06  1470   0.259E-03    0.977E-03
RMM:  42    -0.111973283561E+04   -0.33627E-04   -0.28267E-06  1374   0.230E-03    0.614E-03
RMM:  43    -0.111973284839E+04   -0.12786E-04   -0.18421E-06  1282   0.193E-03    0.561E-03
RMM:  44    -0.111973285483E+04   -0.64388E-05   -0.10221E-06  1176   0.164E-03    0.418E-03
RMM:  45    -0.111973286155E+04   -0.67173E-05   -0.10016E-06  1162   0.131E-03    0.387E-03
RMM:  46    -0.111973286483E+04   -0.32805E-05   -0.67344E-07  1106   0.121E-03    0.288E-03
RMM:  47    -0.111973286863E+04   -0.38033E-05   -0.37792E-07  1077   0.979E-04    0.284E-03
RMM:  48    -0.111973286886E+04   -0.22835E-06   -0.31555E-07   984   0.776E-04
   7 F= -.11284161E+04 E0= -.11284062E+04  d E =-.159847E+02  mag=     2.1154
       N       E                     dE             d eps       ncg     rms          rms(c)
DAV:   1    -0.106971115299E+04    0.50022E+02   -0.84380E+03  1992   0.217E+02    0.606E+01
RMM:   2    -0.113068042021E+04   -0.60969E+02   -0.50934E+02  2361   0.544E+01    0.741E+01
RMM:   3    -0.120661352978E+04   -0.75933E+02   -0.22126E+02  2442   0.296E+01    0.126E+02
RMM:   4    -0.115758513821E+04    0.49028E+02   -0.39244E+01  2156   0.158E+01    0.747E+01
RMM:   5    -0.115430268260E+04    0.32825E+01   -0.21078E+01  2116   0.109E+01    0.781E+01
RMM:   6    -0.113336383745E+04    0.20939E+02   -0.24436E+01  2222   0.960E+00    0.606E+01
RMM:   7    -0.111895824607E+04    0.14406E+02   -0.69452E+00  2289   0.511E+00    0.307E+01
RMM:   8    -0.112317081516E+04   -0.42126E+01   -0.58488E+00  2262   0.435E+00    0.497E+01
RMM:   9    -0.111852487522E+04    0.46459E+01   -0.25877E+00  2239   0.336E+00    0.257E+01
RMM:  10    -0.111884346932E+04   -0.31859E+00   -0.20627E+00  2235   0.280E+00    0.259E+01
RMM:  11    -0.111870452387E+04    0.13895E+00   -0.12798E+00  2242   0.232E+00    0.220E+01
RMM:  12    -0.111848792998E+04    0.21659E+00   -0.64998E-01  2273   0.165E+00    0.176E+01
RMM:  13    -0.111939836287E+04   -0.91043E+00   -0.11990E+00  2236   0.220E+00    0.278E+01
RMM:  14    -0.111905344936E+04    0.34491E+00   -0.10454E+00  2301   0.202E+00    0.231E+01
RMM:  15    -0.111895311346E+04    0.10034E+00   -0.71873E-01  2230   0.175E+00    0.166E+01
RMM:  16    -0.111888009127E+04    0.73022E-01   -0.31003E-01  2278   0.115E+00    0.146E+01
RMM:  17    -0.111892703793E+04   -0.46947E-01   -0.12905E-01  2369   0.665E-01    0.144E+01
RMM:  18    -0.111986138260E+04   -0.93434E+00   -0.71631E-01  2223   0.165E+00    0.241E+01
RMM:  19    -0.111918406687E+04    0.67732E+00   -0.51054E-01  2331   0.146E+00    0.206E+01
RMM:  20    -0.111869302905E+04    0.49104E+00   -0.29414E-01  2325   0.110E+00    0.173E+01
RMM:  21    -0.111843274360E+04    0.26029E+00   -0.17824E-01  2344   0.802E-01    0.112E+01
RMM:  22    -0.111853526798E+04   -0.10252E+00   -0.98471E-02  2327   0.602E-01    0.819E+00
RMM:  23    -0.111862877480E+04   -0.93507E-01   -0.46873E-02  2216   0.438E-01    0.833E+00
RMM:  24    -0.111873800424E+04   -0.10923E+00   -0.54257E-02  2403   0.410E-01    0.103E+01
RMM:  25    -0.111872025247E+04    0.17752E-01   -0.39035E-02  2185   0.411E-01    0.917E+00
RMM:  26    -0.111871710041E+04    0.31521E-02   -0.46928E-02  2292   0.416E-01    0.566E+00
RMM:  27    -0.111879928474E+04   -0.82184E-01   -0.45713E-02  2272   0.389E-01    0.553E+00
RMM:  28    -0.111881689684E+04   -0.17612E-01   -0.14055E-02  2304   0.260E-01    0.569E+00
RMM:  29    -0.111881667801E+04    0.21883E-03   -0.44468E-03  2526   0.118E-01    0.578E+00
RMM:  30    -0.111881396628E+04    0.27117E-02   -0.84165E-04  2357   0.483E-02    0.587E+00
RMM:  31    -0.111879048780E+04    0.23478E-01   -0.65451E-03  2239   0.149E-01    0.557E+00
RMM:  32    -0.111876523545E+04    0.25252E-01   -0.19493E-02  2141   0.281E-01    0.455E+00
RMM:  33    -0.111875601031E+04    0.92251E-02   -0.20833E-02  2174   0.297E-01    0.281E+00
RMM:  34    -0.111884246974E+04   -0.86459E-01   -0.24033E-02  2336   0.308E-01    0.694E+00
RMM:  35    -0.111880304924E+04    0.39420E-01   -0.20908E-02  2124   0.321E-01    0.583E+00
RMM:  36    -0.111878214145E+04    0.20908E-01   -0.11110E-02  2331   0.206E-01    0.199E+00
RMM:  37    -0.111880749541E+04   -0.25354E-01   -0.88230E-03  2222   0.214E-01    0.219E+00
RMM:  38    -0.111883147147E+04   -0.23976E-01   -0.10190E-02  2172   0.213E-01    0.229E+00
RMM:  39    -0.111883381455E+04   -0.23431E-02   -0.37188E-03  2338   0.133E-01    0.181E+00
RMM:  40    -0.111885706486E+04   -0.23250E-01   -0.47360E-03  2310   0.127E-01    0.258E+00
RMM:  41    -0.111885362710E+04    0.34378E-02   -0.27755E-03  2173   0.119E-01    0.212E+00
RMM:  42    -0.111886036561E+04   -0.67385E-02   -0.20278E-03  2179   0.920E-02    0.166E+00
RMM:  43    -0.111886599445E+04   -0.56288E-02   -0.18792E-03  2201   0.981E-02    0.110E+00
RMM:  44    -0.111887713980E+04   -0.11145E-01   -0.13560E-03  2360   0.652E-02    0.143E+00
RMM:  45    -0.111887927084E+04   -0.21310E-02   -0.69314E-04  2277   0.520E-02    0.130E+00
RMM:  46    -0.111888299926E+04   -0.37284E-02   -0.61216E-04  2295   0.458E-02    0.841E-01
RMM:  47    -0.111888842075E+04   -0.54215E-02   -0.93820E-04  2281   0.595E-02    0.872E-01
RMM:  48    -0.111888970980E+04   -0.12891E-02   -0.55079E-04  2087   0.535E-02    0.111E+00
RMM:  49    -0.111888983788E+04   -0.12808E-03   -0.24023E-04  2085   0.312E-02    0.998E-01
RMM:  50    -0.111889248996E+04   -0.26521E-02   -0.33635E-04  2180   0.344E-02    0.621E-01
RMM:  51    -0.111889751312E+04   -0.50232E-02   -0.56574E-04  2360   0.405E-02    0.106E+00
RMM:  52    -0.111889952795E+04   -0.20148E-02   -0.55581E-04  2198   0.536E-02    0.971E-01
RMM:  53    -0.111890059097E+04   -0.10630E-02   -0.30358E-04  2154   0.356E-02    0.139E+00
RMM:  54    -0.111890057565E+04    0.15318E-04   -0.19453E-04  2268   0.251E-02    0.447E-01
RMM:  55    -0.111890262928E+04   -0.20536E-02   -0.17340E-04  2130   0.279E-02    0.413E-01
RMM:  56    -0.111890430964E+04   -0.16804E-02   -0.17289E-04  2038   0.286E-02    0.403E-01
RMM:  57    -0.111890684109E+04   -0.25315E-02   -0.31462E-04  2186   0.280E-02    0.388E-01
RMM:  58    -0.111890712936E+04   -0.28827E-03   -0.71830E-05  1972   0.173E-02    0.588E-02
RMM:  59    -0.111890776087E+04   -0.63151E-03   -0.54431E-05  1956   0.133E-02    0.271E-01
RMM:  60    -0.111890827696E+04   -0.51609E-03   -0.37735E-05  1925   0.946E-03    0.360E-02
RMM:  61    -0.111890889988E+04   -0.62292E-03   -0.31485E-05  1874   0.871E-03    0.194E-01
RMM:  62    -0.111890931391E+04   -0.41404E-03   -0.23806E-05  1804   0.629E-03    0.565E-02
RMM:  63    -0.111890962983E+04   -0.31592E-03   -0.15243E-05  1712   0.567E-03    0.164E-01
RMM:  64    -0.111890984587E+04   -0.21604E-03   -0.12141E-05  1656   0.446E-03    0.699E-02
RMM:  65    -0.111891002583E+04   -0.17996E-03   -0.95137E-06  1614   0.433E-03    0.138E-01
RMM:  66    -0.111891013920E+04   -0.11337E-03   -0.81876E-06  1605   0.360E-03    0.659E-02
RMM:  67    -0.111891024105E+04   -0.10185E-03   -0.67926E-06  1532   0.335E-03    0.116E-01
RMM:  68    -0.111891029364E+04   -0.52587E-04   -0.57722E-06  1507   0.318E-03    0.705E-02
RMM:  69    -0.111891032998E+04   -0.36338E-04   -0.40453E-06  1431   0.282E-03    0.945E-02
RMM:  70    -0.111891033834E+04   -0.83644E-05   -0.25021E-06  1326   0.214E-03    0.614E-02
RMM:  71    -0.111891034396E+04   -0.56214E-05   -0.14421E-06  1218   0.199E-03    0.758E-02
RMM:  72    -0.111891034226E+04    0.17058E-05   -0.63316E-07  1118   0.137E-03    0.617E-02
RMM:  73    -0.111891034403E+04   -0.17674E-05   -0.35360E-07  1107   0.110E-03    0.721E-02
RMM:  74    -0.111891034367E+04    0.36129E-06   -0.21346E-07  1002   0.797E-04
   8 F= -.11277565E+04 E0= -.11277364E+04  d E =0.659586E+00  mag=     3.2731
       N       E                     dE             d eps       ncg     rms          rms(c)
DAV:   1    -0.111726185797E+04    0.16485E+01   -0.23557E+03  2016   0.110E+02    0.201E+01
RMM:   2    -0.113123973222E+04   -0.13978E+02   -0.76530E+01  2211   0.216E+01    0.445E+01
RMM:   3    -0.112975424664E+04    0.14855E+01   -0.19747E+01  2503   0.940E+00    0.403E+01
RMM:   4    -0.112992212725E+04   -0.16788E+00   -0.70438E+00  2314   0.578E+00    0.415E+01
RMM:   5    -0.112734586989E+04    0.25763E+01   -0.46170E+00  2225   0.458E+00    0.350E+01
RMM:   6    -0.112678431185E+04    0.56156E+00   -0.15156E+00  2331   0.240E+00    0.254E+01
RMM:   7    -0.112703037108E+04   -0.24606E+00   -0.15102E+00  2261   0.240E+00    0.268E+01
RMM:   8    -0.112546041620E+04    0.15700E+01   -0.92673E-01  2215   0.188E+00    0.105E+01
RMM:   9    -0.112575416040E+04   -0.29374E+00   -0.41301E-01  2201   0.140E+00    0.109E+01
RMM:  10    -0.112575044222E+04    0.37182E-02   -0.23412E-01  2342   0.836E-01    0.101E+01
RMM:  11    -0.112599915050E+04   -0.24871E+00   -0.38169E-01  2145   0.126E+00    0.148E+01
RMM:  12    -0.112572135575E+04    0.27779E+00   -0.30558E-01  2196   0.108E+00    0.893E+00
RMM:  13    -0.112567550826E+04    0.45847E-01   -0.29706E-01  2121   0.115E+00    0.912E+00
RMM:  14    -0.112568810103E+04   -0.12593E-01   -0.23605E-01  2214   0.894E-01    0.795E+00
RMM:  15    -0.112567507025E+04    0.13031E-01   -0.20949E-01  2153   0.954E-01    0.109E+01
RMM:  16    -0.112559701238E+04    0.78058E-01   -0.11383E-01  2170   0.777E-01    0.740E+00
RMM:  17    -0.112555844238E+04    0.38570E-01   -0.45208E-02  2208   0.449E-01    0.402E+00
RMM:  18    -0.112561951432E+04   -0.61072E-01   -0.27416E-02  2141   0.353E-01    0.369E+00
RMM:  19    -0.112564585806E+04   -0.26344E-01   -0.26740E-02  2199   0.357E-01    0.315E+00
RMM:  20    -0.112567531926E+04   -0.29461E-01   -0.20067E-02  2369   0.268E-01    0.376E+00
RMM:  21    -0.112569600234E+04   -0.20683E-01   -0.14835E-02  2165   0.257E-01    0.341E+00
RMM:  22    -0.112570945373E+04   -0.13451E-01   -0.10094E-02  2317   0.185E-01    0.161E+00
RMM:  23    -0.112573353153E+04   -0.24078E-01   -0.61027E-03  2298   0.159E-01    0.134E+00
RMM:  24    -0.112574874921E+04   -0.15218E-01   -0.32751E-03  2345   0.104E-01    0.104E+00
RMM:  25    -0.112576317257E+04   -0.14423E-01   -0.25580E-03  2420   0.808E-02    0.101E+00
RMM:  26    -0.112577602248E+04   -0.12850E-01   -0.20020E-03  2427   0.695E-02    0.671E-01
RMM:  27    -0.112578481570E+04   -0.87932E-02   -0.12522E-03  2594   0.460E-02    0.440E-01
RMM:  28    -0.112578985233E+04   -0.50366E-02   -0.69824E-04  2424   0.443E-02    0.425E-01
RMM:  29    -0.112579472078E+04   -0.48684E-02   -0.63106E-04  2457   0.404E-02    0.425E-01
RMM:  30    -0.112579795626E+04   -0.32355E-02   -0.45091E-04  2487   0.305E-02    0.273E-01
RMM:  31    -0.112580102063E+04   -0.30644E-02   -0.36744E-04  2482   0.263E-02    0.159E-01
RMM:  32    -0.112580224203E+04   -0.12214E-02   -0.14287E-04  2365   0.187E-02    0.134E-01
RMM:  33    -0.112580353712E+04   -0.12951E-02   -0.11171E-04  2278   0.138E-02    0.129E-01
RMM:  34    -0.112580464429E+04   -0.11072E-02   -0.97705E-05  2132   0.157E-02    0.107E-01
RMM:  35    -0.112580563152E+04   -0.98723E-03   -0.87911E-05  2130   0.127E-02    0.617E-02
RMM:  36    -0.112580628607E+04   -0.65455E-03   -0.48615E-05  1978   0.836E-03    0.566E-02
RMM:  37    -0.112580674508E+04   -0.45901E-03   -0.28349E-05  1816   0.667E-03    0.423E-02
RMM:  38    -0.112580730896E+04   -0.56388E-03   -0.29377E-05  1873   0.628E-03    0.330E-02
RMM:  39    -0.112580764339E+04   -0.33443E-03   -0.14633E-05  1681   0.448E-03    0.234E-02
RMM:  40    -0.112580786181E+04   -0.21842E-03   -0.81392E-06  1586   0.373E-03    0.170E-02
RMM:  41    -0.112580807048E+04   -0.20868E-03   -0.71179E-06  1528   0.352E-03    0.116E-02
RMM:  42    -0.112580832102E+04   -0.25054E-03   -0.95282E-06  1657   0.365E-03    0.114E-02
RMM:  43    -0.112580853242E+04   -0.21140E-03   -0.10125E-05  1653   0.345E-03    0.102E-02
RMM:  44    -0.112580864016E+04   -0.10774E-03   -0.52153E-06  1484   0.267E-03    0.106E-02
RMM:  45    -0.112580872890E+04   -0.88742E-04   -0.52199E-06  1461   0.240E-03    0.862E-03
RMM:  46    -0.112580878342E+04   -0.54513E-04   -0.36486E-06  1384   0.222E-03    0.558E-03
RMM:  47    -0.112580880864E+04   -0.25226E-04   -0.25900E-06  1332   0.199E-03    0.615E-03
RMM:  48    -0.112580882625E+04   -0.17612E-04   -0.15605E-06  1213   0.166E-03    0.345E-03
RMM:  49    -0.112580883803E+04   -0.11770E-04   -0.13343E-06  1158   0.143E-03    0.264E-03
RMM:  50    -0.112580884387E+04   -0.58430E-05   -0.10310E-06  1134   0.132E-03    0.143E-03
RMM:  51    -0.112580884609E+04   -0.22176E-05   -0.79294E-07  1071   0.111E-03    0.894E-04
RMM:  52    -0.112580884684E+04   -0.75798E-06   -0.48798E-07  1025   0.968E-04
   9 F= -.11346014E+04 E0= -.11345916E+04  d E =-.618532E+01  mag=     2.1042
       N       E                     dE             d eps       ncg     rms          rms(c)
DAV:   1    -0.111041383748E+04    0.15395E+02   -0.45484E+03  2004   0.155E+02    0.288E+01
RMM:   2    -0.112988937644E+04   -0.19476E+02   -0.18291E+02  2172   0.331E+01    0.398E+01
RMM:   3    -0.115566018958E+04   -0.25771E+02   -0.51008E+01  2372   0.161E+01    0.736E+01
RMM:   4    -0.114535771721E+04    0.10302E+02   -0.18286E+01  2355   0.917E+00    0.547E+01
RMM:   5    -0.113272921621E+04    0.12629E+02   -0.58435E+00  2311   0.526E+00    0.316E+01
RMM:   6    -0.113124151584E+04    0.14877E+01   -0.38652E+00  2299   0.367E+00    0.319E+01
RMM:   7    -0.113134961397E+04   -0.10810E+00   -0.19702E+00  2301   0.264E+00    0.311E+01
RMM:   8    -0.112990845011E+04    0.14412E+01   -0.12272E+00  2300   0.218E+00    0.242E+01
RMM:   9    -0.113043625326E+04   -0.52780E+00   -0.12584E+00  2221   0.208E+00    0.266E+01
RMM:  10    -0.113008755387E+04    0.34870E+00   -0.94180E-01  2267   0.198E+00    0.214E+01
RMM:  11    -0.112983192231E+04    0.25563E+00   -0.70431E-01  2308   0.177E+00    0.171E+01
RMM:  12    -0.112974994385E+04    0.81978E-01   -0.78867E-01  2280   0.175E+00    0.122E+01
RMM:  13    -0.112987057577E+04   -0.12063E+00   -0.39770E-01  2287   0.132E+00    0.124E+01
RMM:  14    -0.112976035141E+04    0.11022E+00   -0.39795E-01  2231   0.127E+00    0.118E+01
RMM:  15    -0.112973698023E+04    0.23371E-01   -0.40759E-01  2278   0.123E+00    0.911E+00
RMM:  16    -0.112975784639E+04   -0.20866E-01   -0.46958E-01  2216   0.145E+00    0.977E+00
RMM:  17    -0.112976790999E+04   -0.10064E-01   -0.34445E-01  2280   0.119E+00    0.105E+01
RMM:  18    -0.112964889417E+04    0.11902E+00   -0.22535E-01  2233   0.104E+00    0.775E+00
RMM:  19    -0.112959517387E+04    0.53720E-01   -0.46877E-02  2308   0.457E-01    0.634E+00
RMM:  20    -0.112959118629E+04    0.39876E-02   -0.42865E-02  2188   0.412E-01    0.495E+00
RMM:  21    -0.112959926765E+04   -0.80814E-02   -0.43353E-02  2230   0.424E-01    0.398E+00
RMM:  22    -0.112959984902E+04   -0.58137E-03   -0.24160E-02  2337   0.294E-01    0.337E+00
RMM:  23    -0.112961135719E+04   -0.11508E-01   -0.14030E-02  2415   0.212E-01    0.289E+00
RMM:  24    -0.112962145426E+04   -0.10097E-01   -0.72741E-03  2404   0.165E-01    0.316E+00
RMM:  25    -0.112961126655E+04    0.10188E-01   -0.40451E-03  2220   0.128E-01    0.288E+00
RMM:  26    -0.112960768873E+04    0.35778E-02   -0.18978E-03  2500   0.651E-02    0.246E+00
RMM:  27    -0.112962636484E+04   -0.18676E-01   -0.78033E-03  2171   0.172E-01    0.322E+00
RMM:  28    -0.112962099241E+04    0.53724E-02   -0.10642E-02  2203   0.205E-01    0.257E+00
RMM:  29    -0.112961597644E+04    0.50160E-02   -0.52937E-03  2414   0.131E-01    0.165E+00
RMM:  30    -0.112961734786E+04   -0.13714E-02   -0.18747E-03  2357   0.792E-02    0.116E+00
RMM:  31    -0.112961934898E+04   -0.20011E-02   -0.18319E-03  2185   0.854E-02    0.109E+00
RMM:  32    -0.112961959912E+04   -0.25014E-03   -0.97856E-04  2281   0.626E-02    0.682E-01
RMM:  33    -0.112961999998E+04   -0.40085E-03   -0.46816E-04  2312   0.394E-02    0.476E-01
RMM:  34    -0.112962035152E+04   -0.35154E-03   -0.16787E-04  2304   0.237E-02    0.478E-01
RMM:  35    -0.112962037857E+04   -0.27052E-04   -0.48688E-05  1992   0.104E-02    0.486E-01
RMM:  36    -0.112961998474E+04    0.39383E-03   -0.25357E-05  1832   0.109E-02    0.525E-01
RMM:  37    -0.112962130673E+04   -0.13220E-02   -0.20188E-04  2059   0.282E-02    0.417E-01
RMM:  38    -0.112962235929E+04   -0.10526E-02   -0.29630E-04  2146   0.343E-02    0.388E-01
RMM:  39    -0.112962297886E+04   -0.61957E-03   -0.45158E-04  2246   0.414E-02    0.358E-01
RMM:  40    -0.112962378321E+04   -0.80435E-03   -0.47117E-04  2436   0.402E-02    0.447E-01
RMM:  41    -0.112962483700E+04   -0.10538E-02   -0.40093E-04  2203   0.332E-02    0.473E-01
RMM:  42    -0.112962577458E+04   -0.93758E-03   -0.51173E-04  2259   0.350E-02    0.206E-01
RMM:  43    -0.112962665433E+04   -0.87974E-03   -0.33875E-04  2108   0.301E-02    0.217E-01
RMM:  44    -0.112962706952E+04   -0.41519E-03   -0.16649E-04  2169   0.195E-02    0.214E-01
RMM:  45    -0.112962657354E+04    0.49598E-03   -0.10039E-04  1898   0.210E-02    0.264E-01
RMM:  46    -0.112962725602E+04   -0.68248E-03   -0.17839E-04  1914   0.237E-02    0.243E-01
[...]
RMM:  29    -0.115873755233E+04   -0.88655E-06   -0.16078E-07   896   0.614E-04
 299 F= -.11678104E+04 E0= -.11677897E+04  d E =-.164684E-01  mag=     6.1279
       N       E                     dE             d eps       ncg     rms          rms(c)
DAV:   1    -0.115872374986E+04    0.13802E-01   -0.83374E+00  1992   0.572E+00    0.818E-01
RMM:   2    -0.115874466305E+04   -0.20913E-01   -0.14571E-01  2380   0.841E-01    0.180E+00
RMM:   3    -0.115875624493E+04   -0.11582E-01   -0.28344E-02  2382   0.370E-01    0.360E+00
RMM:   4    -0.115874688236E+04    0.93626E-02   -0.15449E-02  2384   0.272E-01    0.275E+00
RMM:   5    -0.115873974712E+04    0.71352E-02   -0.81101E-03  2229   0.203E-01    0.828E-01
RMM:   6    -0.115874186791E+04   -0.21208E-02   -0.31775E-03  2161   0.118E-01    0.694E-01
RMM:   7    -0.115874311126E+04   -0.12434E-02   -0.15905E-03  2278   0.829E-02    0.108E+00
RMM:   8    -0.115874123424E+04    0.18770E-02   -0.11119E-03  2196   0.754E-02    0.214E-01
RMM:   9    -0.115874283049E+04   -0.15963E-02   -0.13769E-03  2173   0.767E-02    0.728E-01
RMM:  10    -0.115874228564E+04    0.54485E-03   -0.94407E-04  2258   0.613E-02    0.552E-01
RMM:  11    -0.115874208059E+04    0.20504E-03   -0.65357E-04  2137   0.570E-02    0.494E-01
RMM:  12    -0.115874182959E+04    0.25101E-03   -0.38122E-04  2184   0.424E-02    0.288E-01
RMM:  13    -0.115874191247E+04   -0.82887E-04   -0.22647E-04  2081   0.323E-02    0.196E-01
RMM:  14    -0.115874190833E+04    0.41425E-05   -0.11294E-04  1987   0.245E-02    0.139E-01
RMM:  15    -0.115874191287E+04   -0.45339E-05   -0.55783E-05  1843   0.179E-02    0.116E-01
RMM:  16    -0.115874190409E+04    0.87771E-05   -0.17132E-05  1580   0.975E-03    0.370E-02
RMM:  17    -0.115874192496E+04   -0.20872E-04   -0.62340E-06  1450   0.583E-03    0.444E-02
RMM:  18    -0.115874193359E+04   -0.86277E-05   -0.48292E-06  1399   0.527E-03    0.292E-02
RMM:  19    -0.115874193969E+04   -0.60997E-05   -0.26776E-06  1335   0.392E-03    0.188E-02
RMM:  20    -0.115874194639E+04   -0.67059E-05   -0.18051E-06  1285   0.295E-03    0.101E-02
RMM:  21    -0.115874195102E+04   -0.46234E-05   -0.11897E-06  1239   0.250E-03    0.965E-03
RMM:  22    -0.115874195398E+04   -0.29672E-05   -0.58415E-07  1176   0.177E-03    0.920E-03
RMM:  23    -0.115874195618E+04   -0.21948E-05   -0.32957E-07  1111   0.125E-03    0.612E-03
RMM:  24    -0.115874195829E+04   -0.21077E-05   -0.23993E-07  1054   0.970E-04    0.389E-03
RMM:  25    -0.115874196076E+04   -0.24736E-05   -0.22295E-07  1043   0.891E-04    0.395E-03
RMM:  26    -0.115874196267E+04   -0.19144E-05   -0.19352E-07  1018   0.796E-04    0.312E-03
RMM:  27    -0.115874196405E+04   -0.13762E-05   -0.16543E-07   956   0.670E-04    0.218E-03
RMM:  28    -0.115874196494E+04   -0.88828E-06   -0.13659E-07   926   0.627E-04
 300 F= -.11678159E+04 E0= -.11677952E+04  d E =-.219118E-01  mag=     6.1266
       N       E                     dE             d eps       ncg     rms          rms(c)
DAV:   1    -0.115873102396E+04    0.10940E-01   -0.11766E+01  1992   0.694E+00    0.962E-01
RMM:   2    -0.115875558929E+04   -0.24565E-01   -0.21138E-01  2388   0.990E-01    0.122E+00
RMM:   3    -0.115879109300E+04   -0.35504E-01   -0.42036E-02  2390   0.438E-01    0.473E+00
RMM:   4    -0.115875778700E+04    0.33306E-01   -0.20859E-02  2417   0.297E-01    0.210E+00
RMM:   5    -0.115875651323E+04    0.12738E-02   -0.96037E-03  2226   0.217E-01    0.763E-01
RMM:   6    -0.115875795064E+04   -0.14374E-02   -0.30149E-03  2286   0.110E-01    0.816E-01
RMM:   7    -0.115875803553E+04   -0.84898E-04   -0.17624E-03  2272   0.844E-02    0.732E-01
RMM:   8    -0.115875728360E+04    0.75193E-03   -0.13112E-03  2217   0.732E-02    0.429E-01
RMM:   9    -0.115875953447E+04   -0.22509E-02   -0.19638E-03  2217   0.834E-02    0.977E-01
RMM:  10    -0.115875737597E+04    0.21585E-02   -0.12860E-03  2246   0.767E-02    0.432E-01
RMM:  11    -0.115875741384E+04   -0.37869E-04   -0.44196E-04  2123   0.457E-02    0.363E-01
RMM:  12    -0.115875741689E+04   -0.30548E-05   -0.34267E-04  2102   0.395E-02    0.306E-01
RMM:  13    -0.115875736301E+04    0.53883E-04   -0.19369E-04  2033   0.288E-02    0.186E-01
RMM:  14    -0.115875737882E+04   -0.15807E-04   -0.10858E-04  1953   0.243E-02    0.152E-01
RMM:  15    -0.115875738956E+04   -0.10748E-04   -0.36116E-05  1801   0.122E-02    0.109E-01
RMM:  16    -0.115875740100E+04   -0.11434E-04   -0.17317E-05  1588   0.920E-03    0.577E-02
RMM:  17    -0.115875742283E+04   -0.21829E-04   -0.74678E-06  1500   0.662E-03    0.494E-02
RMM:  18    -0.115875744206E+04   -0.19233E-04   -0.54700E-06  1434   0.561E-03    0.420E-02
RMM:  19    -0.115875745120E+04   -0.91366E-05   -0.26407E-06  1348   0.394E-03    0.184E-02
RMM:  20    -0.115875746495E+04   -0.13748E-04   -0.17417E-06  1282   0.283E-03    0.190E-02
RMM:  21    -0.115875747582E+04   -0.10876E-04   -0.13305E-06  1260   0.262E-03    0.190E-02
RMM:  22    -0.115875748366E+04   -0.78346E-05   -0.78929E-07  1204   0.193E-03    0.679E-03
RMM:  23    -0.115875749037E+04   -0.67138E-05   -0.57591E-07  1139   0.159E-03    0.610E-03
RMM:  24    -0.115875749557E+04   -0.52049E-05   -0.44380E-07  1100   0.124E-03    0.881E-03
RMM:  25    -0.115875749912E+04   -0.35446E-05   -0.32230E-07  1061   0.106E-03    0.741E-03
RMM:  26    -0.115875750408E+04   -0.49648E-05   -0.35564E-07  1080   0.895E-04    0.297E-03
RMM:  27    -0.115875750861E+04   -0.45269E-05   -0.41444E-07  1107   0.989E-04    0.216E-03
RMM:  28    -0.115875751084E+04   -0.22252E-05   -0.36966E-07  1060   0.939E-04    0.252E-03
RMM:  29    -0.115875751192E+04   -0.10868E-05   -0.27055E-07   975   0.780E-04    0.234E-03
RMM:  30    -0.115875751251E+04   -0.58280E-06   -0.20050E-07   910   0.655E-04
 301 F= -.11678329E+04 E0= -.11678124E+04  d E =-.170756E-01  mag=     6.1235
       N       E                     dE             d eps       ncg     rms          rms(c)
DAV:   1    -0.115874393792E+04    0.13574E-01   -0.74196E+00  1992   0.551E+00    0.763E-01
RMM:   2    -0.115875931446E+04   -0.15377E-01   -0.13125E-01  2393   0.781E-01    0.993E-01
RMM:   3    -0.115878087763E+04   -0.21563E-01   -0.26162E-02  2382   0.347E-01    0.368E+00
RMM:   4    -0.115875976717E+04    0.21110E-01   -0.12921E-02  2416   0.234E-01    0.150E+00
RMM:   5    -0.115875992789E+04   -0.16071E-03   -0.56485E-03  2200   0.166E-01    0.587E-01
RMM:   6    -0.115876067367E+04   -0.74578E-03   -0.17809E-03  2271   0.852E-02    0.611E-01
RMM:   7    -0.115876042841E+04    0.24527E-03   -0.93519E-04  2281   0.636E-02    0.449E-01
RMM:   8    -0.115876043441E+04   -0.60052E-05   -0.76829E-04  2203   0.570E-02    0.437E-01
RMM:   9    -0.115876193570E+04   -0.15013E-02   -0.11108E-03  2207   0.652E-02    0.106E+00
RMM:  10    -0.115876010458E+04    0.18311E-02   -0.93881E-04  2186   0.692E-02    0.406E-01
RMM:  11    -0.115876030882E+04   -0.20425E-03   -0.47940E-04  2020   0.504E-02    0.216E-01
RMM:  12    -0.115876038655E+04   -0.77728E-04   -0.21681E-04  2080   0.315E-02    0.231E-01
RMM:  13    -0.115876032916E+04    0.57393E-04   -0.10144E-04  1942   0.206E-02    0.153E-01
RMM:  14    -0.115876032206E+04    0.70999E-05   -0.57192E-05  1825   0.175E-02    0.813E-02
RMM:  15    -0.115876034278E+04   -0.20721E-04   -0.18552E-05  1587   0.887E-03    0.528E-02
RMM:  16    -0.115876035872E+04   -0.15943E-04   -0.88040E-06  1469   0.696E-03    0.438E-02
RMM:  17    -0.115876036835E+04   -0.96286E-05   -0.36552E-06  1372   0.474E-03    0.222E-02
RMM:  18    -0.115876038083E+04   -0.12475E-04   -0.24915E-06  1351   0.380E-03    0.220E-02
RMM:  19    -0.115876038838E+04   -0.75491E-05   -0.14269E-06  1274   0.288E-03    0.111E-02
RMM:  20    -0.115876039593E+04   -0.75543E-05   -0.95368E-07  1222   0.217E-03    0.138E-02
RMM:  21    -0.115876040183E+04   -0.58968E-05   -0.66956E-07  1198   0.186E-03    0.139E-02
RMM:  22    -0.115876040588E+04   -0.40493E-05   -0.44473E-07  1140   0.142E-03    0.754E-03
RMM:  23    -0.115876041137E+04   -0.54881E-05   -0.37700E-07  1109   0.116E-03    0.551E-03
RMM:  24    -0.115876041562E+04   -0.42559E-05   -0.32861E-07  1078   0.999E-04    0.438E-03
RMM:  25    -0.115876041834E+04   -0.27203E-05   -0.26657E-07  1030   0.909E-04    0.317E-03
RMM:  26    -0.115876042105E+04   -0.27047E-05   -0.25425E-07   995   0.768E-04    0.365E-03
RMM:  27    -0.115876042279E+04   -0.17413E-05   -0.22419E-07  1000   0.765E-04    0.223E-03
RMM:  28    -0.115876042414E+04   -0.13552E-05   -0.21425E-07   953   0.685E-04    0.167E-03
RMM:  29    -0.115876042492E+04   -0.78041E-06   -0.17814E-07   945   0.654E-04
 302 F= -.11678371E+04 E0= -.11678166E+04  d E =-.212258E-01  mag=     6.1211
       N       E                     dE             d eps       ncg     rms          rms(c)
DAV:   1    -0.115875285501E+04    0.75691E-02   -0.10014E+01  1992   0.647E+00    0.874E-01
RMM:   2    -0.115878084149E+04   -0.27986E-01   -0.18174E-01  2376   0.917E-01    0.264E+00
RMM:   3    -0.115878253020E+04   -0.16887E-02   -0.33388E-02  2412   0.387E-01    0.243E+00
RMM:   4    -0.115878043475E+04    0.20955E-02   -0.14426E-02  2427   0.251E-01    0.203E+00
RMM:   5    -0.115877439095E+04    0.60438E-02   -0.58052E-03  2264   0.160E-01    0.922E-01
RMM:   6    -0.115877550164E+04   -0.11107E-02   -0.28826E-03  2195   0.116E-01    0.749E-01
RMM:   7    -0.115877639421E+04   -0.89257E-03   -0.16567E-03  2301   0.792E-02    0.105E+00
RMM:   8    -0.115877461336E+04    0.17809E-02   -0.13015E-03  2168   0.810E-02    0.274E-01
RMM:   9    -0.115877625344E+04   -0.16401E-02   -0.13690E-03  2194   0.729E-02    0.864E-01
RMM:  10    -0.115877527050E+04    0.98294E-03   -0.10997E-03  2220   0.714E-02    0.470E-01
RMM:  11    -0.115877549755E+04   -0.22705E-03   -0.78809E-04  2173   0.640E-02    0.481E-01
RMM:  12    -0.115877521105E+04    0.28650E-03   -0.32758E-04  2149   0.380E-02    0.316E-01
RMM:  13    -0.115877523411E+04   -0.23057E-04   -0.20514E-04  2133   0.309E-02    0.173E-01
RMM:  14    -0.115877529502E+04   -0.60910E-04   -0.10453E-04  1900   0.232E-02    0.187E-01
RMM:  15    -0.115877528396E+04    0.11058E-04   -0.74892E-05  1897   0.193E-02    0.147E-01
RMM:  16    -0.115877525516E+04    0.28804E-04   -0.25624E-05  1650   0.113E-02    0.570E-02
RMM:  17    -0.115877527468E+04   -0.19516E-04   -0.99681E-06  1521   0.693E-03    0.501E-02
RMM:  18    -0.115877528129E+04   -0.66177E-05   -0.66573E-06  1434   0.604E-03    0.436E-02
RMM:  19    -0.115877528366E+04   -0.23618E-05   -0.26593E-06  1308   0.376E-03    0.244E-02
RMM:  20    -0.115877528854E+04   -0.48812E-05   -0.13285E-06  1258   0.271E-03    0.121E-02
RMM:  21    -0.115877529482E+04   -0.62792E-05   -0.10198E-06  1230   0.229E-03    0.121E-02
RMM:  22    -0.115877529855E+04   -0.37296E-05   -0.72645E-07  1187   0.209E-03    0.857E-03
RMM:  23    -0.115877530233E+04   -0.37837E-05   -0.45544E-07  1154   0.141E-03    0.515E-03
RMM:  24    -0.115877530425E+04   -0.19189E-05   -0.31377E-07  1082   0.116E-03    0.400E-03
RMM:  25    -0.115877530568E+04   -0.14273E-05   -0.19091E-07  1043   0.841E-04    0.291E-03
RMM:  26    -0.115877530717E+04   -0.14958E-05   -0.13978E-07   977   0.650E-04    0.159E-03
RMM:  27    -0.115877530836E+04   -0.11932E-05   -0.12000E-07   910   0.601E-04    0.144E-03
RMM:  28    -0.115877530935E+04   -0.98191E-06   -0.10854E-07   910   0.563E-04
 303 F= -.11678519E+04 E0= -.11678316E+04  d E =-.148114E-01  mag=     6.1200
       N       E                     dE             d eps       ncg     rms          rms(c)
DAV:   1    -0.115874636727E+04    0.28941E-01   -0.15857E+01  1992   0.814E+00    0.110E+00
RMM:   2    -0.115878906015E+04   -0.42693E-01   -0.29007E-01  2371   0.116E+00    0.310E+00
RMM:   3    -0.115879612605E+04   -0.70659E-02   -0.54658E-02  2415   0.485E-01    0.301E+00
RMM:   4    -0.115878995229E+04    0.61738E-02   -0.22098E-02  2434   0.311E-01    0.249E+00
RMM:   5    -0.115878096583E+04    0.89865E-02   -0.93702E-03  2271   0.201E-01    0.116E+00
RMM:   6    -0.115878303234E+04   -0.20665E-02   -0.44844E-03  2207   0.143E-01    0.106E+00
RMM:   7    -0.115878380117E+04   -0.76883E-03   -0.27542E-03  2274   0.105E-01    0.116E+00
RMM:   8    -0.115878171128E+04    0.20899E-02   -0.19771E-03  2196   0.986E-02    0.412E-01
RMM:   9    -0.115878384056E+04   -0.21293E-02   -0.21449E-03  2223   0.863E-02    0.103E+00
RMM:  10    -0.115878257331E+04    0.12673E-02   -0.17714E-03  2230   0.893E-02    0.629E-01
RMM:  11    -0.115878247569E+04    0.97618E-04   -0.12158E-03  2195   0.780E-02    0.476E-01
RMM:  12    -0.115878231597E+04    0.15972E-03   -0.48488E-04  2192   0.449E-02    0.369E-01
RMM:  13    -0.115878227436E+04    0.41612E-04   -0.33839E-04  2176   0.395E-02    0.180E-01
RMM:  14    -0.115878235931E+04   -0.84952E-04   -0.16842E-04  2056   0.296E-02    0.221E-01
RMM:  15    -0.115878234553E+04    0.13779E-04   -0.96502E-05  1879   0.208E-02    0.190E-01
RMM:  16    -0.115878229362E+04    0.51911E-04   -0.44834E-05  1797   0.149E-02    0.768E-02
RMM:  17    -0.115878231853E+04   -0.24913E-04   -0.16040E-05  1622   0.854E-03    0.517E-02
RMM:  18    -0.115878233192E+04   -0.13389E-04   -0.10014E-05  1514   0.710E-03    0.423E-02
RMM:  19    -0.115878233683E+04   -0.49034E-05   -0.44850E-06  1366   0.465E-03    0.257E-02
RMM:  20    -0.115878234382E+04   -0.69975E-05   -0.19387E-06  1288   0.325E-03    0.170E-02
RMM:  21    -0.115878235141E+04   -0.75902E-05   -0.15052E-06  1268   0.278E-03    0.186E-02
RMM:  22    -0.115878235693E+04   -0.55141E-05   -0.10454E-06  1221   0.244E-03    0.141E-02
RMM:  23    -0.115878236232E+04   -0.53886E-05   -0.69545E-07  1191   0.177E-03    0.723E-03
RMM:  24    -0.115878236544E+04   -0.31282E-05   -0.48812E-07  1141   0.149E-03    0.557E-03
RMM:  25    -0.115878236765E+04   -0.22028E-05   -0.28116E-07  1079   0.105E-03    0.353E-03
RMM:  26    -0.115878237003E+04   -0.23786E-05   -0.21139E-07  1055   0.800E-04    0.271E-03
RMM:  27    -0.115878237202E+04   -0.19980E-05   -0.17931E-07   980   0.722E-04    0.207E-03
RMM:  28    -0.115878237361E+04   -0.15900E-05   -0.16040E-07   957   0.635E-04    0.206E-03
RMM:  29    -0.115878237466E+04   -0.10453E-05   -0.14181E-07   946   0.638E-04    0.217E-03
RMM:  30    -0.115878237530E+04   -0.63581E-06   -0.11168E-07   872   0.552E-04
 304 F= -.11678586E+04 E0= -.11678385E+04  d E =-.215465E-01  mag=     6.1188
       N       E                     dE             d eps       ncg     rms          rms(c)
DAV:   1    -0.115876372508E+04    0.18650E-01   -0.13145E+01  1992   0.747E+00    0.105E+00
RMM:   2    -0.115880594963E+04   -0.42225E-01   -0.25409E-01  2387   0.109E+00    0.358E+00
RMM:   3    -0.115880103045E+04    0.49192E-02   -0.48180E-02  2423   0.465E-01    0.234E+00
RMM:   4    -0.115879914007E+04    0.18904E-02   -0.18995E-02  2399   0.306E-01    0.177E+00
RMM:   5    -0.115879459994E+04    0.45401E-02   -0.65279E-03  2319   0.168E-01    0.138E+00
RMM:   6    -0.115879360043E+04    0.99951E-03   -0.38562E-03  2260   0.125E-01    0.893E-01
RMM:   7    -0.115879575592E+04   -0.21555E-02   -0.23309E-03  2185   0.973E-02    0.131E+00
RMM:   8    -0.115879316119E+04    0.25947E-02   -0.16637E-03  2167   0.920E-02    0.481E-01
RMM:   9    -0.115879503915E+04   -0.18780E-02   -0.15323E-03  2190   0.751E-02    0.107E+00
RMM:  10    -0.115879323370E+04    0.18054E-02   -0.14047E-03  2229   0.821E-02    0.265E-01
RMM:  11    -0.115879433523E+04   -0.11015E-02   -0.10464E-03  2184   0.735E-02    0.503E-01
RMM:  12    -0.115879392017E+04    0.41506E-03   -0.46615E-04  2191   0.460E-02    0.301E-01
RMM:  13    -0.115879397032E+04   -0.50150E-04   -0.35246E-04  2170   0.405E-02    0.301E-01
RMM:  14    -0.115879387491E+04    0.95406E-04   -0.13064E-04  1993   0.254E-02    0.175E-01
RMM:  15    -0.115879387435E+04    0.55895E-06   -0.86933E-05  1929   0.205E-02    0.144E-01
RMM:  16    -0.115879386037E+04    0.13981E-04   -0.43041E-05  1810   0.137E-02    0.922E-02
RMM:  17    -0.115879386784E+04   -0.74693E-05   -0.23581E-05  1698   0.107E-02    0.846E-02
RMM:  18    -0.115879386422E+04    0.36167E-05   -0.97185E-06  1528   0.726E-03    0.390E-02
RMM:  19    -0.115879387199E+04   -0.77626E-05   -0.44221E-06  1389   0.511E-03    0.295E-02
RMM:  20    -0.115879387705E+04   -0.50603E-05   -0.24410E-06  1336   0.390E-03    0.234E-02
RMM:  21    -0.115879388128E+04   -0.42348E-05   -0.18036E-06  1286   0.310E-03    0.173E-02
RMM:  22    -0.115879388600E+04   -0.47152E-05   -0.13189E-06  1260   0.281E-03    0.219E-02
RMM:  23    -0.115879389061E+04   -0.46146E-05   -0.75482E-07  1183   0.200E-03    0.117E-02
RMM:  24    -0.115879389399E+04   -0.33828E-05   -0.56527E-07  1161   0.177E-03    0.618E-03
RMM:  25    -0.115879389733E+04   -0.33339E-05   -0.34808E-07  1102   0.125E-03    0.487E-03
RMM:  26    -0.115879390026E+04   -0.29338E-05   -0.24259E-07  1067   0.993E-04    0.435E-03
RMM:  27    -0.115879390348E+04   -0.32203E-05   -0.23697E-07  1045   0.857E-04    0.421E-03
RMM:  28    -0.115879390567E+04   -0.21887E-05   -0.20825E-07  1009   0.778E-04    0.186E-03
RMM:  29    -0.115879390734E+04   -0.16729E-05   -0.18663E-07   987   0.715E-04    0.306E-03
RMM:  30    -0.115879390842E+04   -0.10795E-05   -0.14838E-07   943   0.629E-04    0.206E-03
RMM:  31    -0.115879390910E+04   -0.67133E-06   -0.11302E-07   858   0.537E-04
 305 F= -.11678733E+04 E0= -.11678535E+04  d E =-.146646E-01  mag=     6.1167
       N       E                     dE             d eps       ncg     rms          rms(c)
DAV:   1    -0.115878528707E+04    0.86214E-02   -0.40366E+00  1992   0.414E+00    0.578E-01
RMM:   2    -0.115879781703E+04   -0.12530E-01   -0.77029E-02  2379   0.606E-01    0.176E+00
RMM:   3    -0.115879753725E+04    0.27978E-03   -0.14723E-02  2409   0.261E-01    0.151E+00
RMM:   4    -0.115879679063E+04    0.74662E-03   -0.61708E-03  2407   0.172E-01    0.134E+00
RMM:   5    -0.115879425661E+04    0.25340E-02   -0.23223E-03  2289   0.103E-01    0.783E-01
RMM:   6    -0.115879421728E+04    0.39322E-04   -0.14737E-03  2160   0.812E-02    0.372E-01
RMM:   7    -0.115879504464E+04   -0.82736E-03   -0.69742E-04  2214   0.529E-02    0.783E-01
RMM:   8    -0.115879407981E+04    0.96484E-03   -0.50671E-04  2145   0.511E-02    0.256E-01
RMM:   9    -0.115879446477E+04   -0.38496E-03   -0.37277E-04  2115   0.393E-02    0.403E-01
RMM:  10    -0.115879446458E+04    0.19457E-06   -0.36812E-04  2198   0.431E-02    0.296E-01
RMM:  11    -0.115879444630E+04    0.18276E-04   -0.23264E-04  2102   0.331E-02    0.238E-01
RMM:  12    -0.115879442148E+04    0.24827E-04   -0.17311E-04  2100   0.281E-02    0.145E-01
RMM:  13    -0.115879445647E+04   -0.34991E-04   -0.83946E-05  1862   0.188E-02    0.187E-01
RMM:  14    -0.115879441200E+04    0.44464E-04   -0.43967E-05  1799   0.150E-02    0.110E-01
RMM:  15    -0.115879440654E+04    0.54671E-05   -0.19448E-05  1607   0.972E-03    0.734E-02
RMM:  16    -0.115879440488E+04    0.16515E-05   -0.11263E-05  1479   0.725E-03    0.462E-02
RMM:  17    -0.115879440786E+04   -0.29793E-05   -0.51033E-06  1389   0.523E-03    0.318E-02
RMM:  18    -0.115879440978E+04   -0.19126E-05   -0.25496E-06  1326   0.382E-03    0.173E-02
RMM:  19    -0.115879441228E+04   -0.24993E-05   -0.12425E-06  1249   0.287E-03    0.146E-02
RMM:  20    -0.115879441391E+04   -0.16338E-05   -0.68777E-07  1164   0.207E-03    0.981E-03
RMM:  21    -0.115879441549E+04   -0.15804E-05   -0.49349E-07  1147   0.169E-03    0.890E-03
RMM:  22    -0.115879441722E+04   -0.17311E-05   -0.29539E-07  1102   0.131E-03    0.733E-03
RMM:  23    -0.115879441895E+04   -0.17266E-05   -0.20984E-07  1090   0.988E-04    0.427E-03
RMM:  24    -0.115879442000E+04   -0.10525E-05   -0.16063E-07  1024   0.903E-04    0.351E-03
RMM:  25    -0.115879442104E+04   -0.10435E-05   -0.10132E-07   944   0.632E-04    0.221E-03
RMM:  26    -0.115879442190E+04   -0.85563E-06   -0.76460E-08   865   0.545E-04
