Co–organic framework                  
           1
    25.578027    1.305211   -0.455283
    13.919916   19.022383   -0.443897
    -0.124191   -0.054334    6.855815
   O    C    H    Co   Li
  54  67  16  18   4
Direct configuration=     1
   0.04319201  0.24789706  0.28811289
   0.01535925  0.30627890  0.93506505
   0.09282725  0.25249638  0.70366504
   0.62615858  0.14050715  0.34498112
   0.60495317  0.09698261  0.99389912
   0.55485736  0.17460726  0.74355335
   0.98330191  0.41863901  0.63908568
   0.36671460  0.55116069  0.33723265
   0.36938132  0.57498621  0.93736731
   0.35238666  0.50526001  0.76731474
   0.57697344  0.03148896  0.66391928
   0.33069990  0.97693451  0.34775089
   0.25370989  0.02523756  0.58002310
   0.29674226  0.03110739  0.99374864
   0.57512842  0.41403096  0.25907280
   0.58616884  0.36484096  0.53611749
   0.02720845  0.63896971  0.74206240
   0.04347597  0.56211940  0.96322531
   0.46499590  0.41719818  0.02414055
   0.08770626  0.64432752  0.41550099
   0.14624678  0.64843192  0.65510172
   0.40863198  0.93920624  0.68600877
   0.43662787  0.98118367  0.92962492
   0.13571015  0.60074306  0.05449587
   0.68852471  0.01283020  0.65326555
   0.75846213  0.00180608  0.44170030
   0.72751770  0.96800587  0.00908517
   0.46666238  0.55153233  0.55628394
   0.41847311  0.64150982  0.34538937
   0.97844763  0.39041447  0.27369181
   0.93911438  0.47652380  0.05369594
   0.45730437  0.59733835  0.95347887
   0.94836381  0.32878877  0.60568462
   0.87602265  0.37291443  0.34855941
   0.61915721  0.02394255  0.31562680
   0.60711202  0.96831869  0.06951533
   0.87943187  0.39271024  0.94923501
   0.98559002  0.77460065  0.72034015
   0.01496803  0.71560754  0.08445094
   0.93671008  0.77946951  0.31077831
   0.37279990  0.85801571  0.64831321
   0.38645901  0.89117095  0.01026168
   0.43316974  0.80774669  0.24266192
   0.99959349  0.62576724  0.37172344
   0.70179711  0.35739342  0.59935090
   0.62667770  0.45926080  0.95499679
   0.70403916  0.37345065  0.16915236
   0.45928965  0.91817313  0.33114354
   0.60983222  0.51725297  0.48912722
   0.65108689  0.56259604  0.66066040
   0.69694343  0.50699975  0.36752952
   0.72215892  0.18592254  0.58339196
   0.66648947  0.25405457  0.84842198
   0.69077316  0.14336919  0.79684118
   0.10420835  0.19621022  0.21150654
   0.15470072  0.13936953  0.33306623
   0.07456855  0.25370734  0.87456818
   0.12137872  0.19512988  0.01383202
   0.58748161  0.20522973  0.25174323
   0.58105738  0.26256831  0.34875898
   0.57249271  0.16084335  0.92219121
   0.55746357  0.21884605  0.06173604
   0.98569075  0.47002727  0.57361358
   0.00084136  0.50497330  0.70373895
   0.30884851  0.56447918  0.27493427
   0.25702217  0.58745570  0.40241772
   0.34283973  0.54276210  0.91965558
   0.29882165  0.55550514  0.07397641
   0.55144206  0.00153551  0.57903782
   0.51512182  0.99011568  0.69451736
   0.27032820  0.02554630  0.40758689
   0.21979458  0.08309291  0.26875506
   0.23597468  0.08234878  0.07051127
   0.18601217  0.13873690  0.94900465
   0.56647651  0.37475253  0.35981233
   0.54778168  0.33158943  0.26962653
   0.02680340  0.58710526  0.79105387
   0.00630672  0.55699757  0.64305541
   0.50992237  0.34632283  0.09660544
   0.51584688  0.29083944  0.99481385
   0.14129991  0.63280463  0.47899530
   0.19712125  0.60124769  0.33947136
   0.44125206  0.96049235  0.75271614
   0.48359126  0.96288306  0.61823522
   0.18990750  0.58863034  0.13828144
   0.24201608  0.56465765  0.01191822
   0.74836961  0.98386040  0.60235068
   0.80381502  0.93035103  0.73761745
   0.78950602  0.92769387  0.93566023
   0.84311923  0.87896119  0.05990113
   0.43832449  0.61918669  0.51935957
   0.42904329  0.67181182  0.66837103
   0.96225315  0.45202953  0.22362574
   0.97440478  0.48973463  0.37213359
   0.44078775  0.65792033  0.87314541
   0.43450904  0.71057789  0.99626727
   0.89162217  0.35474925  0.52954281
   0.84155833  0.36396112  0.65599382
   0.59655224  0.99137764  0.24484387
   0.55803899  0.98198509  0.37659808
   0.84005446  0.37985718  0.85891006
   0.79122371  0.38641349  0.96655608
   0.92390549  0.82605996  0.79478440
   0.87033702  0.88105874  0.67377328
   0.95643219  0.77195169  0.13714653
   0.90869282  0.82781207  0.99438375
   0.39668876  0.79369796  0.72458353
   0.40596847  0.73967537  0.60099746
   0.41089366  0.82762569  0.06861835
   0.41340363  0.77712529  0.92715709
   0.99448428  0.57707929  0.44226176
   0.97756283  0.54335950  0.31266018
   0.74542306  0.36569303  0.67902486
   0.79634882  0.35512181  0.57164962
   0.68785719  0.40558668  0.00792687
   0.74294401  0.38382719  0.87917610
   0.48927611  0.94377095  0.41514846
   0.52768197  0.95301159  0.30047839
   0.65524899  0.52986781  0.50465547
   0.69343869  0.19223070  0.74510523
   0.49743402  0.43100236  0.90479967
   0.14235698  0.14005441  0.48414927
   0.60921452  0.24965947  0.48460072
   0.00973508  0.49004954  0.85708794
   0.26172639  0.59739280  0.55578706
   0.51047425  0.00452621  0.84936309
   0.19884312  0.13847558  0.79884660
   0.48851358  0.30333160  0.85622499
   0.23467095  0.55835485  0.85754255
   0.83239567  0.87822046  0.21164840
   0.44580622  0.69930012  0.15123768
   0.78922431  0.39470105  0.12427562
   0.88093889  0.88290654  0.52252603
   0.39530853  0.75086132  0.44586643
   0.96885920  0.55822571  0.15925740
   0.80011600  0.34002038  0.41711932
   0.53283316  0.93814113  0.14594142
   0.40757493  0.50653077  0.58416035
   0.02447444  0.31943852  0.49634335
   0.59777541  0.09355974  0.53824240
   0.07503564  0.67806103  0.85101482
   0.38923255  0.96966418  0.12556341
   0.32393791  0.95936240  0.78215453
   0.56433226  0.43637671  0.98153689
   0.58285246  0.34791642  0.80561978
   0.06059521  0.61019794  0.17156064
   0.64163448  0.00050503  0.87592057
   0.95355233  0.33222798  0.15558003
   0.46155675  0.52124009  0.81800830
   0.67938035  0.04158742  0.21328378
   0.94258115  0.40732609  0.84905280
   0.41343246  0.57847491  0.17230369
   0.64342093  0.42452880  0.38923716
   0.99128442  0.70942095  0.51786536
   0.41405399  0.87814920  0.45143903
   0.78224010  0.46658587  0.32144366
   0.59947171  0.53781341  0.77229588
   0.71418355  0.11042701  0.51556445
   0.70670086  0.27523276  0.62764000
Co–organic framework                  
           1
    25.570056    1.301457   -0.449374
    13.914202   19.000760   -0.420522
    -0.123013   -0.046759    6.852118
   O    C    H    Co   Li
  54  67  16  18   4
Direct configuration=     2
   0.04329931  0.24765224  0.28766333
   0.01533196  0.30638644  0.93493755
   0.09276914  0.25253603  0.70369945
   0.62628271  0.14030226  0.34491084
   0.60486187  0.09705160  0.99365322
   0.55483314  0.17461583  0.74428268
   0.98327362  0.41888455  0.63930393
   0.36763825  0.55091023  0.33720668
   0.37007584  0.57507122  0.93952049
   0.35263483  0.50545936  0.76552438
   0.57684871  0.03151513  0.66342185
   0.33091844  0.97674326  0.34803209
   0.25367641  0.02525102  0.57958531
   0.29686834  0.03098890  0.99313875
   0.57539057  0.41392987  0.25869060
   0.58612270  0.36484463  0.53642523
   0.02698426  0.64089154  0.73965272
   0.04385169  0.56249892  0.96634703
   0.46471259  0.41734242  0.02475022
   0.08722617  0.64394485  0.41359267
   0.14594643  0.64860056  0.65447024
   0.40860379  0.93918136  0.68606844
   0.43657530  0.98121793  0.92895684
   0.13551901  0.59990546  0.05264384
   0.68856375  0.01286357  0.65306206
   0.75841781  0.00191581  0.44145688
   0.72770422  0.96776204  0.00889706
   0.46624384  0.55178847  0.55785640
   0.41825945  0.64095112  0.34546431
   0.97843158  0.39044632  0.27391130
   0.93911181  0.47647686  0.05352615
   0.45740587  0.59684676  0.95505476
   0.94835254  0.32885085  0.60576878
   0.87595216  0.37299562  0.34871369
   0.61910587  0.02384935  0.31544994
   0.60706740  0.96822385  0.06960644
   0.87913015  0.39290627  0.94891481
   0.98606283  0.77408182  0.71579135
   0.01514733  0.71563088  0.08421244
   0.93731923  0.77890596  0.31524329
   0.37293551  0.85759828  0.64866856
   0.38640174  0.89136141  0.00980560
   0.43296806  0.80738420  0.24097229
   0.99974334  0.62723869  0.36780848
   0.70152360  0.35746275  0.59885712
   0.62664400  0.45915696  0.95519193
   0.70392301  0.37361438  0.16970885
   0.45933496  0.91821474  0.33040364
   0.60980548  0.51689365  0.48868883
   0.65109766  0.56246978  0.66031166
   0.69669842  0.50706521  0.36789769
   0.72245228  0.18586740  0.58220650
   0.66631377  0.25431157  0.84867943
   0.69076991  0.14371662  0.79654786
   0.10424239  0.19615389  0.21128105
   0.15469655  0.13939883  0.33288210
   0.07461562  0.25368510  0.87480375
   0.12132242  0.19510850  0.01427599
   0.58757342  0.20506436  0.25195913
   0.58105603  0.26253169  0.34888557
   0.57254994  0.16083261  0.92231424
   0.55735292  0.21899654  0.06127988
   0.98569014  0.46981647  0.57365435
   0.00084787  0.50500920  0.70358168
   0.30899052  0.56471857  0.27431932
   0.25679721  0.58767719  0.40267906
   0.34257685  0.54281271  0.92112788
   0.29872157  0.55548907  0.07283050
   0.55131064  0.00151251  0.57899021
   0.51515971  0.99012558  0.69482793
   0.27026616  0.02555641  0.40780886
   0.21983754  0.08319266  0.26813081
   0.23572282  0.08261832  0.07067454
   0.18616929  0.13851622  0.94949689
   0.56671406  0.37458907  0.36055568
   0.54762327  0.33178394  0.26961012
   0.02651992  0.58744926  0.78937153
   0.00632849  0.55683388  0.64433909
   0.51008581  0.34637549  0.09634664
   0.51580452  0.29079521  0.99473202
   0.14184085  0.63246460  0.47851773
   0.19732598  0.60108113  0.33933826
   0.44122945  0.96050387  0.75227444
   0.48363592  0.96279665  0.61784051
   0.18911669  0.58883296  0.13895276
   0.24197634  0.56466904  0.01183062
   0.74828766  0.98375082  0.60260057
   0.80383635  0.93022320  0.73766207
   0.78936903  0.92781869  0.93565260
   0.84316570  0.87900413  0.06003172
   0.43838835  0.61883960  0.51916377
   0.42901898  0.67164779  0.66854305
   0.96224840  0.45187998  0.22346517
   0.97449327  0.48964403  0.37250750
   0.44065507  0.65790054  0.87407339
   0.43459643  0.71079920  0.99549490
   0.89163463  0.35468502  0.52960065
   0.84146723  0.36405056  0.65613097
   0.59656642  0.99143909  0.24499099
   0.55794027  0.98205071  0.37640577
   0.84023975  0.37989710  0.85912328
   0.79125583  0.38644361  0.96670880
   0.92390735  0.82579159  0.79329170
   0.87034209  0.88118289  0.67395081
   0.95667835  0.77180403  0.13723552
   0.90853368  0.82774082  0.99501945
   0.39640499  0.79405724  0.72462457
   0.40618139  0.73953765  0.60144111
   0.41117416  0.82764591  0.07069520
   0.41335327  0.77701208  0.92736268
   0.99445233  0.57714934  0.44283468
   0.97744578  0.54350275  0.31231100
   0.74568668  0.36568322  0.67874222
   0.79615485  0.35524322  0.57160940
   0.68790899  0.40566087  0.00737977
   0.74306893  0.38372109  0.87980101
   0.48915805  0.94377327  0.41594590
   0.52760246  0.95303101  0.30059741
   0.65538323  0.53000697  0.50496134
   0.69339803  0.19166498  0.74585964
   0.49720812  0.43064454  0.90416390
   0.14237543  0.14002476  0.48420002
   0.60937315  0.24959338  0.48501781
   0.00969862  0.49006861  0.85695987
   0.26176554  0.59742765  0.55619337
   0.51043461  0.00457434  0.84925344
   0.19876042  0.13851134  0.79889929
   0.48856235  0.30325697  0.85608978
   0.23478407  0.55826719  0.85758579
   0.83237037  0.87824490  0.21159837
   0.44584172  0.69921220  0.15154418
   0.78925856  0.39470676  0.12421772
   0.88090969  0.88288102  0.52233920
   0.39527122  0.75095021  0.44551855
   0.96887575  0.55817489  0.15923465
   0.80019201  0.33993990  0.41702231
   0.53285638  0.93815683  0.14577236
   0.40727459  0.50690780  0.58332669
   0.02450081  0.31949217  0.49570776
   0.59808943  0.09327601  0.53931610
   0.07427251  0.67851221  0.85413226
   0.38910135  0.96893064  0.12765315
   0.32486544  0.95859028  0.78172607
   0.56435379  0.43635253  0.98219891
   0.58321334  0.34784673  0.80624031
   0.06137512  0.61104370  0.17348046
   0.64154577  0.00112758  0.87575038
   0.95379845  0.33219215  0.15582212
   0.46176295  0.52076367  0.81570311
   0.67926089  0.04172634  0.21329387
   0.94267638  0.40724020  0.84971244
   0.41226747  0.58009951  0.16863872
   0.64327432  0.42448282  0.38956044
   0.99071360  0.70711469  0.52065359
   0.41367430  0.87965478  0.45120044
   0.78231859  0.46648321  0.32145995
   0.59951197  0.53777168  0.77252946
   0.71424075  0.11040214  0.51570108
   0.70660869  0.27530786  0.62777148
Co–organic framework                  
           1
    25.570241    1.301544   -0.449511
    13.914335   19.001261   -0.421064
    -0.123040   -0.046935    6.852204
   O    C    H    Co   Li
  54  67  16  18   4
Direct configuration=     3
   0.04329682  0.24765792  0.28767375
   0.01533259  0.30638394  0.93494052
   0.09277049  0.25253511  0.70369866
   0.62627983  0.14030702  0.34491246
   0.60486399  0.09705000  0.99365893
   0.55483370  0.17461563  0.74426576
   0.98327427  0.41887885  0.63929889
   0.36761682  0.55091604  0.33720728
   0.37005972  0.57506927  0.93947055
   0.35262908  0.50545471  0.76556594
   0.57685161  0.03151452  0.66343339
   0.33091337  0.97674770  0.34802556
   0.25367719  0.02525070  0.57959547
   0.29686541  0.03099165  0.99315289
   0.57538449  0.41393221  0.25869947
   0.58612377  0.36484454  0.53641809
   0.02698949  0.64084690  0.73970877
   0.04384297  0.56249013  0.96627463
   0.46471916  0.41733908  0.02473608
   0.08723731  0.64395372  0.41363691
   0.14595340  0.64859664  0.65448490
   0.40860444  0.93918194  0.68606705
   0.43657652  0.98121713  0.92897235
   0.13552344  0.59992489  0.05268674
   0.68856285  0.01286279  0.65306678
   0.75841884  0.00191326  0.44146253
   0.72769989  0.96776770  0.00890141
   0.46625355  0.55178254  0.55781993
   0.41826440  0.64096409  0.34546252
   0.97843195  0.39044558  0.27390621
   0.93911187  0.47647795  0.05353009
   0.45740351  0.59685819  0.95501816
   0.94835280  0.32884941  0.60576683
   0.87595380  0.37299373  0.34871012
   0.61910706  0.02385151  0.31545404
   0.60706843  0.96822605  0.06960432
   0.87913715  0.39290172  0.94892225
   0.98605188  0.77409382  0.71589686
   0.01514317  0.71563034  0.08421798
   0.93730507  0.77891908  0.31513966
   0.37293236  0.85760797  0.64866028
   0.38640307  0.89135698  0.00981619
   0.43297275  0.80739260  0.24101146
   0.99973989  0.62720449  0.36789943
   0.70152995  0.35746114  0.59886858
   0.62664478  0.45915937  0.95518739
   0.70392570  0.37361059  0.16969595
   0.45933392  0.91821377  0.33042081
   0.60980610  0.51690199  0.48869897
   0.65109741  0.56247271  0.66031974
   0.69670410  0.50706369  0.36788915
   0.72244548  0.18586866  0.58223400
   0.66631784  0.25430561  0.84867347
   0.69076999  0.14370855  0.79655469
   0.10424160  0.19615520  0.21128628
   0.15469665  0.13939815  0.33288637
   0.07461453  0.25368562  0.87479828
   0.12132372  0.19510900  0.01426568
   0.58757129  0.20506821  0.25195411
   0.58105606  0.26253254  0.34888263
   0.57254862  0.16083286  0.92231138
   0.55735549  0.21899305  0.06129047
   0.98569015  0.46982137  0.57365339
   0.00084772  0.50500836  0.70358534
   0.30898723  0.56471301  0.27433361
   0.25680243  0.58767205  0.40267301
   0.34258294  0.54281155  0.92109372
   0.29872390  0.55548943  0.07285709
   0.55131368  0.00151305  0.57899131
   0.51515883  0.99012536  0.69482072
   0.27026760  0.02555618  0.40780371
   0.21983655  0.08319033  0.26814530
   0.23572867  0.08261207  0.07067077
   0.18616564  0.13852135  0.94948546
   0.56670854  0.37459287  0.36053842
   0.54762694  0.33177942  0.26961052
   0.02652651  0.58744126  0.78941058
   0.00632798  0.55683769  0.64430930
   0.51008202  0.34637426  0.09635265
   0.51580550  0.29079624  0.99473392
   0.14182831  0.63247249  0.47852879
   0.19732123  0.60108499  0.33934134
   0.44122998  0.96050359  0.75228469
   0.48363488  0.96279865  0.61784966
   0.18913503  0.58882826  0.13893718
   0.24197727  0.56466878  0.01183265
   0.74828956  0.98375337  0.60259476
   0.80383585  0.93022616  0.73766102
   0.78937221  0.92781579  0.93565278
   0.84316462  0.87900314  0.06002869
   0.43838687  0.61884765  0.51916828
   0.42901954  0.67165160  0.66853905
   0.96224851  0.45188345  0.22346888
   0.97449121  0.48964613  0.37249881
   0.44065815  0.65790101  0.87405185
   0.43459441  0.71079406  0.99551284
   0.89163434  0.35468651  0.52959930
   0.84146934  0.36404848  0.65612780
   0.59656609  0.99143767  0.24498758
   0.55794256  0.98204919  0.37641023
   0.84023545  0.37989617  0.85911834
   0.79125508  0.38644291  0.96670526
   0.92390731  0.82579780  0.79332631
   0.87034197  0.88118001  0.67394670
   0.95667264  0.77180746  0.13723345
   0.90853736  0.82774248  0.99500469
   0.39641157  0.79404890  0.72462364
   0.40617645  0.73954085  0.60143081
   0.41116765  0.82764546  0.07064702
   0.41335444  0.77701471  0.92735790
   0.99445307  0.57714772  0.44282139
   0.97744850  0.54349943  0.31231912
   0.74568056  0.36568345  0.67874878
   0.79615935  0.35524040  0.57161034
   0.68790779  0.40565915  0.00739247
   0.74306603  0.38372356  0.87978650
   0.48916079  0.94377323  0.41592739
   0.52760431  0.95303056  0.30059465
   0.65538011  0.53000374  0.50495425
   0.69339897  0.19167812  0.74584209
   0.49721335  0.43065285  0.90417862
   0.14237500  0.14002545  0.48419884
   0.60936946  0.24959492  0.48500813
   0.00969946  0.49006816  0.85696284
   0.26176463  0.59742685  0.55618395
   0.51043553  0.00457323  0.84925598
   0.19876234  0.13851051  0.79889807
   0.48856122  0.30325870  0.85609291
   0.23478144  0.55826922  0.85758478
   0.83237096  0.87824433  0.21159953
   0.44584090  0.69921425  0.15153706
   0.78925777  0.39470663  0.12421907
   0.88091036  0.88288161  0.52234353
   0.39527208  0.75094814  0.44552663
   0.96887536  0.55817607  0.15923518
   0.80019025  0.33994177  0.41702455
   0.53285584  0.93815646  0.14577628
   0.40728157  0.50689904  0.58334606
   0.02450020  0.31949092  0.49572251
   0.59808214  0.09328260  0.53929118
   0.07429021  0.67850177  0.85405995
   0.38910438  0.96894769  0.12760460
   0.32484392  0.95860820  0.78173597
   0.56435329  0.43635309  0.98218355
   0.58320496  0.34784835  0.80622591
   0.06135703  0.61102408  0.17343600
   0.64154784  0.00111312  0.87575438
   0.95379274  0.33219298  0.15581651
   0.46175817  0.52077470  0.81575656
   0.67926366  0.04172312  0.21329364
   0.94267417  0.40724220  0.84969713
   0.41229452  0.58006176  0.16872386
   0.64327772  0.42448389  0.38955293
   0.99072681  0.70716826  0.52058871
   0.41368312  0.87961983  0.45120608
   0.78231677  0.46648560  0.32145956
   0.59951104  0.53777266  0.77252403
   0.71423943  0.11040272  0.51569790
   0.70661082  0.27530612  0.62776843
Co–organic framework                  
           1
    25.573017    1.302851   -0.451568
    13.916324   19.008790   -0.429203
    -0.123450   -0.049572    6.853491
   O    C    H    Co   Li
  54  67  16  18   4
Direct configuration=     4
   0.04325945  0.24774319  0.28783010
   0.01534212  0.30634644  0.93498505
   0.09279073  0.25252130  0.70368670
   0.62623657  0.14037842  0.34493674
   0.60489581  0.09702592  0.99374464
   0.55484209  0.17461275  0.74401169
   0.98328415  0.41879329  0.63922313
   0.36729512  0.55100328  0.33721630
   0.36981773  0.57503989  0.93872076
   0.35254280  0.50538496  0.76618993
   0.57689508  0.03150534  0.66360667
   0.33083722  0.97681439  0.34792744
   0.25368888  0.02524595  0.57974798
   0.29682153  0.03103286  0.99336525
   0.57529320  0.41396738  0.25883257
   0.58613982  0.36484331  0.53631087
   0.02706799  0.64017667  0.74055035
   0.04371198  0.56235825  0.96518769
   0.46481780  0.41728890  0.02452378
   0.08740456  0.64408687  0.41430112
   0.14605806  0.64853779  0.65470499
   0.40861425  0.93919062  0.68604623
   0.43659488  0.98120509  0.92920510
   0.13559000  0.60021661  0.05333090
   0.68854927  0.01285113  0.65313772
   0.75843431  0.00187498  0.44154744
   0.72763491  0.96785265  0.00896671
   0.46639925  0.55169350  0.55727232
   0.41833872  0.64115886  0.34543572
   0.97843753  0.39043451  0.27382978
   0.93911277  0.47649429  0.05358918
   0.45736799  0.59702976  0.95446865
   0.94835673  0.32882778  0.60573758
   0.87597835  0.37296546  0.34865645
   0.61912494  0.02388398  0.31551553
   0.60708395  0.96825913  0.06957246
   0.87924227  0.39283336  0.94903393
   0.98588742  0.77427400  0.71748102
   0.01508075  0.71562216  0.08430114
   0.93709258  0.77911611  0.31358377
   0.37288505  0.85775352  0.64853605
   0.38642307  0.89129054  0.00997528
   0.43304303  0.80751873  0.24159959
   0.99968816  0.62669102  0.36926498
   0.70162524  0.35743692  0.59904059
   0.62665649  0.45919560  0.95511928
   0.70396614  0.37355360  0.16950225
   0.45931819  0.91819916  0.33067862
   0.60981539  0.51702718  0.48885127
   0.65109367  0.56251667  0.66044109
   0.69678941  0.50704094  0.36776089
   0.72234338  0.18588770  0.58264699
   0.66637906  0.25421607  0.84858403
   0.69077119  0.14358741  0.79665727
   0.10422975  0.19617480  0.21136477
   0.15469811  0.13938791  0.33295055
   0.07459812  0.25369340  0.87471621
   0.12134330  0.19511652  0.01411098
   0.58753928  0.20512587  0.25187873
   0.58105652  0.26254532  0.34883849
   0.57252867  0.16083662  0.92226853
   0.55739408  0.21894053  0.06144952
   0.98569033  0.46989485  0.57363895
   0.00084547  0.50499583  0.70364016
   0.30893785  0.56462947  0.27454815
   0.25688079  0.58759489  0.40258216
   0.34267441  0.54279413  0.92058081
   0.29875882  0.55549488  0.07325623
   0.55135945  0.00152106  0.57900783
   0.51514562  0.99012194  0.69471256
   0.27028919  0.02555269  0.40772638
   0.21982164  0.08315548  0.26836290
   0.23581641  0.08251815  0.07061413
   0.18611086  0.13859833  0.94931377
   0.56662575  0.37464994  0.36027935
   0.54768214  0.33171163  0.26961641
   0.02662538  0.58732113  0.78999696
   0.00632029  0.55689493  0.64386193
   0.51002512  0.34635586  0.09644291
   0.51582025  0.29081165  0.99476236
   0.14163990  0.63259092  0.47869493
   0.19724992  0.60114302  0.33938758
   0.44123788  0.96049952  0.75243857
   0.48361934  0.96282871  0.61798707
   0.18941042  0.58875778  0.13870333
   0.24199111  0.56466479  0.01186317
   0.74831807  0.98379161  0.60250756
   0.80382840  0.93027073  0.73764534
   0.78941993  0.92777229  0.93565554
   0.84314844  0.87898818  0.05998326
   0.43836459  0.61896861  0.51923611
   0.42902797  0.67170880  0.66847893
   0.96225015  0.45193556  0.22352465
   0.97446036  0.48967776  0.37236848
   0.44070429  0.65790804  0.87372852
   0.43456405  0.71071680  0.99578219
   0.89162999  0.35470891  0.52957908
   0.84150107  0.36401733  0.65608009
   0.59656115  0.99141627  0.24493640
   0.55797696  0.98202629  0.37647728
   0.84017091  0.37988227  0.85904416
   0.79124389  0.38643243  0.96665210
   0.92390672  0.82589115  0.79384600
   0.87034021  0.88113676  0.67388500
   0.95658689  0.77185893  0.13720235
   0.90859274  0.82776741  0.99478311
   0.39651045  0.79392369  0.72460967
   0.40610225  0.73958891  0.60127616
   0.41106984  0.82763868  0.06992363
   0.41337195  0.77705420  0.92728613
   0.99446417  0.57712339  0.44262188
   0.97748930  0.54344945  0.31244088
   0.74558878  0.36568681  0.67884730
   0.79622692  0.35519809  0.57162443
   0.68788979  0.40563321  0.00758316
   0.74302247  0.38376062  0.87956872
   0.48920185  0.94377254  0.41564956
   0.52763199  0.95302381  0.30055318
   0.65533336  0.52995527  0.50484790
   0.69341300  0.19187543  0.74557862
   0.49729201  0.43077750  0.90439962
   0.14236857  0.14003579  0.48418114
   0.60931419  0.24961800  0.48486280
   0.00971217  0.49006150  0.85700747
   0.26175097  0.59741475  0.55604246
   0.51044935  0.00455643  0.84929423
   0.19879114  0.13849806  0.79887973
   0.48854423  0.30328469  0.85613994
   0.23474203  0.55829978  0.85756965
   0.83237978  0.87823581  0.21161698
   0.44582850  0.69924493  0.15143020
   0.78924584  0.39470462  0.12423925
   0.88092054  0.88289048  0.52240858
   0.39528511  0.75091711  0.44564791
   0.96886959  0.55819378  0.15924305
   0.80016377  0.33996980  0.41705828
   0.53284777  0.93815096  0.14583520
   0.40738627  0.50676752  0.58363682
   0.02449107  0.31947213  0.49594400
   0.59797268  0.09338163  0.53891690
   0.07455584  0.67834498  0.85297425
   0.38914984  0.96920369  0.12687574
   0.32452082  0.95887722  0.78188461
   0.56434575  0.43636161  0.98195291
   0.58307924  0.34787271  0.80600977
   0.06108543  0.61072949  0.17276840
   0.64157883  0.00089610  0.87581435
   0.95370701  0.33220549  0.15573220
   0.46168643  0.52094044  0.81655911
   0.67930528  0.04167470  0.21329025
   0.94264095  0.40727223  0.84946726
   0.41270069  0.57949503  0.17000212
   0.64332875  0.42449997  0.38944022
   0.99092509  0.70797259  0.51961459
   0.41381558  0.87909501  0.45129082
   0.78228942  0.46652138  0.32145379
   0.59949700  0.53778723  0.77244263
   0.71421949  0.11041141  0.51565030
   0.70664293  0.27527997  0.62772269
Co–organic framework                  
           1
    25.577265    1.306755   -0.450532
    13.922347   18.996082   -0.419083
    -0.123342   -0.045954    6.855912
   O    C    H    Co   Li
  54  67  16  18   4
Direct configuration=     5
   0.04327928  0.24760571  0.28766771
   0.01532820  0.30642304  0.93493457
   0.09274582  0.25255865  0.70366288
   0.62635057  0.14027379  0.34491874
   0.60490802  0.09695000  0.99377118
   0.55481496  0.17463684  0.74410299
   0.98325718  0.41886305  0.63948855
   0.36757122  0.55102807  0.33703790
   0.36987915  0.57494985  0.93924483
   0.35264647  0.50566848  0.76567577
   0.57686043  0.03160111  0.66355623
   0.33090304  0.97674553  0.34814874
   0.25367559  0.02523637  0.57966606
   0.29683396  0.03102717  0.99317694
   0.57542009  0.41383278  0.25883740
   0.58613542  0.36481517  0.53677625
   0.02683776  0.64088955  0.73967026
   0.04367330  0.56288463  0.96437833
   0.46462265  0.41740081  0.02485860
   0.08771447  0.64381440  0.41401266
   0.14591395  0.64861744  0.65443115
   0.40860161  0.93915177  0.68607195
   0.43657291  0.98120530  0.92891490
   0.13574836  0.59976573  0.05295814
   0.68846668  0.01292926  0.65318171
   0.75838171  0.00191127  0.44150430
   0.72772186  0.96775089  0.00893750
   0.46620814  0.55162388  0.55831609
   0.41821726  0.64097036  0.34567874
   0.97844113  0.39039531  0.27410333
   0.93909883  0.47647171  0.05337719
   0.45734290  0.59672002  0.95543182
   0.94839742  0.32885147  0.60582669
   0.87595144  0.37302005  0.34863108
   0.61914658  0.02392417  0.31561331
   0.60707943  0.96825714  0.06954329
   0.87910804  0.39300816  0.94901219
   0.98588151  0.77421550  0.71510757
   0.01519497  0.71562921  0.08429213
   0.93766049  0.77867473  0.31503357
   0.37288888  0.85773710  0.64832512
   0.38643892  0.89137047  0.00995957
   0.43309847  0.80723140  0.24215837
   0.99959984  0.62726868  0.36818902
   0.70160534  0.35743875  0.59914163
   0.62655690  0.45916868  0.95510668
   0.70392519  0.37365995  0.16949739
   0.45934184  0.91820826  0.33043561
   0.60982036  0.51691075  0.48882332
   0.65109963  0.56254835  0.66066130
   0.69676990  0.50705207  0.36769253
   0.72242844  0.18584166  0.58251810
   0.66634039  0.25423478  0.84859741
   0.69074417  0.14342297  0.79693011
   0.10422839  0.19614827  0.21125249
   0.15474604  0.13935250  0.33290689
   0.07462500  0.25367666  0.87488191
   0.12134687  0.19507767  0.01420135
   0.58757062  0.20506623  0.25197592
   0.58106572  0.26249569  0.34896163
   0.57250778  0.16091412  0.92245330
   0.55740423  0.21890820  0.06139789
   0.98570958  0.46986746  0.57374862
   0.00087208  0.50489126  0.70375822
   0.30900017  0.56474639  0.27436973
   0.25697518  0.58764600  0.40243990
   0.34277078  0.54284905  0.92057296
   0.29872443  0.55548769  0.07312524
   0.55131363  0.00151938  0.57898375
   0.51513541  0.99009492  0.69471914
   0.27028568  0.02554580  0.40763327
   0.21982386  0.08321740  0.26824172
   0.23587501  0.08250067  0.07051729
   0.18608978  0.13860173  0.94938523
   0.56671781  0.37464137  0.36021635
   0.54764191  0.33177157  0.26976369
   0.02662817  0.58762030  0.79051008
   0.00630284  0.55705811  0.64384281
   0.51009831  0.34633698  0.09622470
   0.51576040  0.29089389  0.99474376
   0.14136647  0.63258030  0.47841289
   0.19719412  0.60111651  0.33921209
   0.44122394  0.96053202  0.75239374
   0.48364426  0.96280583  0.61798847
   0.18926987  0.58871629  0.13804445
   0.24170279  0.56475894  0.01221527
   0.74839520  0.98369074  0.60241550
   0.80375791  0.93027178  0.73772829
   0.78939404  0.92780681  0.93561742
   0.84313621  0.87903916  0.06010275
   0.43829834  0.61896243  0.51935651
   0.42902131  0.67159308  0.66862978
   0.96225133  0.45193424  0.22357977
   0.97448230  0.48961752  0.37231863
   0.44067084  0.65789344  0.87400459
   0.43469852  0.71062841  0.99590621
   0.89159094  0.35468486  0.52971353
   0.84149135  0.36405631  0.65617925
   0.59651088  0.99137064  0.24484508
   0.55792318  0.98206846  0.37637243
   0.84018277  0.37987869  0.85897254
   0.79129554  0.38644355  0.96672889
   0.92402923  0.82562104  0.79311893
   0.87043843  0.88111687  0.67387777
   0.95657844  0.77181726  0.13890452
   0.90864325  0.82761641  0.99466000
   0.39644637  0.79391734  0.72487697
   0.40620512  0.73949617  0.60125981
   0.41104737  0.82766715  0.06944672
   0.41329877  0.77721959  0.92740934
   0.99440867  0.57747060  0.44248969
   0.97749564  0.54361501  0.31266085
   0.74555764  0.36568480  0.67879829
   0.79619301  0.35525629  0.57144799
   0.68798795  0.40555756  0.00778479
   0.74313782  0.38367691  0.87959708
   0.48923301  0.94377188  0.41579658
   0.52757975  0.95301345  0.30064672
   0.65524828  0.52995490  0.50483805
   0.69347867  0.19200764  0.74516464
   0.49716563  0.43056376  0.90379739