Co–organic framework                  
           1
    26.055865    0.184379   -0.314034
    13.186419   21.842661   -0.339452
    -0.084543   -0.054643    6.758621
   O    C    H    Co   Li
  54  67  16  18   4
Direct configuration=     1
   0.06187348  0.25752414  0.28570519
   0.04243993  0.31075271  0.94542568
   0.10703062  0.26670336  0.69524371
   0.67837672  0.08206436  0.34857818
   0.65242008  0.05179548  0.98369052
   0.61019066  0.12389270  0.75100109
   0.01272642  0.40251525  0.63195361
   0.28090074  0.66575278  0.32072207
   0.32524907  0.63605851  0.95464936
   0.29302241  0.58643470  0.76181105
   0.58939354  0.02081527  0.66172934
   0.30761116  0.03384615  0.35109873
   0.23694504  0.07710371  0.58203088
   0.28419130  0.08190290  0.99021910
   0.65297137  0.31785115  0.33195469
   0.65831324  0.27328749  0.61554587
   0.01002514  0.63721527  0.70483963
   0.03445884  0.56753210  0.93760659
   0.54344607  0.32533224  0.11233962
   0.04924131  0.67002490  0.37624123
   0.09264408  0.69532062  0.61715959
   0.37845496  0.99127785  0.68712102
   0.41767084  0.02208582  0.92613640
   0.09583321  0.64026324  0.01381054
   0.70467185  0.98020984  0.64364304
   0.77618664  0.95980164  0.42713950
   0.73385364  0.93457048  0.00219845
   0.35999528  0.69407489  0.49299016
   0.29607663  0.77751331  0.32931251
   0.98153548  0.38456438  0.28384593
   0.96409733  0.44804813  0.03404765
   0.34112074  0.72537278  0.91766492
   0.98109478  0.30927233  0.61456950
   0.92468444  0.31177490  0.35066939
   0.63604162  0.00334362  0.30848495
   0.60492029  0.96549381  0.06285690
   0.91534457  0.36205711  0.94305288
   0.95371663  0.76044755  0.68099888
   0.97829216  0.71070690  0.04142289
   0.90918971  0.75395358  0.27688293
   0.31439779  0.94156810  0.64669826
   0.33919095  0.96130544  0.01448669
   0.36843297  0.88922309  0.24226735
   0.98551505  0.61621496  0.33844200
   0.77220763  0.27391434  0.65237083
   0.69364345  0.37239242  0.99782916
   0.76808951  0.30806273  0.20643302
   0.42611126  0.96744728  0.32402714
   0.68263509  0.41327983  0.54763625
   0.70768295  0.47581126  0.69357045
   0.75933582  0.41984045  0.42313139
   0.77480676  0.12622987  0.61642346
   0.72573143  0.17706540  0.89135673
   0.74103670  0.08224722  0.81434721
   0.11594902  0.21659828  0.20952115
   0.15773440  0.16957069  0.33220832
   0.09256539  0.26711506  0.87255378
   0.13292181  0.21791578  0.01115852
   0.64763304  0.13888691  0.27145973
   0.64500167  0.18592549  0.39339266
   0.62901128  0.10741420  0.92790771
   0.62216913  0.15351675  0.07774244
   0.00437648  0.45486742  0.55734731
   0.01327172  0.49382689  0.68277173
   0.23579130  0.65774756  0.24849350
   0.18622752  0.67347751  0.36594115
   0.28891841  0.61578800  0.92387537
   0.23963208  0.63167219  0.05766148
   0.55172937  0.00605848  0.57470424
   0.50720927  0.00834604  0.69079257
   0.25495401  0.07596041  0.40765727
   0.21458590  0.12409668  0.26655368
   0.23104402  0.12466225  0.06713067
   0.18956791  0.17231201  0.94498679
   0.64138486  0.28270831  0.43615350
   0.61931283  0.24614231  0.33246339
   0.01793903  0.58573342  0.76162598
   0.00683433  0.54832015  0.61652847
   0.58538574  0.26197105  0.15200602
   0.58874006  0.21636211  0.02200657
   0.09137877  0.67837703  0.43938326
   0.13955057  0.66537023  0.29864711
   0.41809762  0.00332134  0.74944390
   0.46482946  0.99569099  0.61296625
   0.14075534  0.64384447  0.09975118
   0.19193820  0.62582341  0.98677806
   0.75954474  0.94819293  0.58997217
   0.80266539  0.89822323  0.72054576
   0.78735011  0.89486307  0.92000561
   0.83030381  0.84707133  0.03612460
   0.32544601  0.75398408  0.48794798
   0.32513989  0.79374195  0.65066636
   0.97714796  0.43348251  0.21367983
   0.98806313  0.47191975  0.35559606
   0.33757110  0.77686679  0.85377751
   0.34464057  0.81624886  0.98424135
   0.93624827  0.30891689  0.53764827
   0.89270816  0.30958195  0.67503341
   0.60084931  0.98559982  0.23960787
   0.55439086  0.98922037  0.37081544
   0.88240952  0.34046386  0.86162560
   0.83254183  0.34987144  0.96646126
   0.90151148  0.80365376  0.76288272
   0.85904318  0.85320764  0.64757001
   0.92634985  0.75324228  0.10218465
   0.88628239  0.80212083  0.96344663
   0.32200270  0.88971904  0.72164387
   0.31544751  0.85012124  0.59169665
   0.34906753  0.90897896  0.06835464
   0.33776796  0.87162813  0.92297599
   0.99136318  0.56512348  0.41408070
   0.98189842  0.52625892  0.28891428
   0.80831261  0.29347619  0.72168095
   0.85681232  0.28578867  0.61162686
   0.74972872  0.33564034  0.04349916
   0.79739446  0.32610659  0.90440849
   0.46652486  0.97905208  0.40855184
   0.51236481  0.97548126  0.29323038
   0.71867744  0.43796303  0.55290166
   0.74741916  0.12703736  0.77693696
   0.58422269  0.32527534  0.98925864
   0.14524399  0.16885082  0.48434124
   0.67032406  0.17245033  0.53185165
   0.02555984  0.48104022  0.83701019
   0.18333762  0.69263841  0.51464123
   0.50515549  0.02144929  0.84644002
   0.20203298  0.17342868  0.79304577
   0.55787487  0.22951021  0.89490745
   0.19340969  0.60840632  0.83674267
   0.81916022  0.84411054  0.18823498
   0.35583451  0.80368903  0.13883149
   0.81789599  0.38214691  0.09167503
   0.87017966  0.85573555  0.49504462
   0.30476398  0.86304655  0.43699528
   0.96965207  0.53887379  0.13451312
   0.86660911  0.26039695  0.47054931
   0.51448712  0.96252171  0.13718512
   0.30783035  0.61935199  0.54805328
   0.04173783  0.32165113  0.48964987
   0.63177160  0.05942752  0.54267179
   0.03396627  0.69566952  0.81117720
   0.36484168  0.01994319  0.12378519
   0.29373649  0.02183562  0.78702580
   0.64159142  0.33882608  0.04231363
   0.64281314  0.25076341  0.89236872
   0.03462601  0.62585889  0.14265251
   0.65118451  0.97895239  0.86421451
   0.98278822  0.31508336  0.14590678
   0.34971460  0.65848292  0.71958271
   0.71276228  0.99806241  0.20439694
   0.97239222  0.38306051  0.82981384
   0.31727195  0.70307977  0.16116490
   0.71826636  0.33198540  0.44752976
   0.96755939  0.69596590  0.47810556
   0.36712459  0.94623059  0.44972495
   0.83485685  0.36073922  0.37322411
   0.66765431  0.44171031  0.81937012
   0.75844574  0.05995522  0.53520160
   0.75889124  0.20816708  0.69111260
Co–organic framework                  
           1
    26.317983    0.073457   -0.328029
    13.225388   21.915238   -0.370004
    -0.087905   -0.061318    6.828261
   O    C    H    Co   Li
  54  67  16  18   4
Direct configuration=     2
   0.06195052  0.25748637  0.28586750
   0.04234653  0.31082604  0.94542918
   0.10686476  0.26677098  0.69544293
   0.67837115  0.08266469  0.34874718
   0.65221068  0.05234064  0.98343493
   0.61029811  0.12407659  0.75168000
   0.01257153  0.40280816  0.63181147
   0.28039744  0.66571267  0.32084300
   0.32490813  0.63581515  0.95491920
   0.29313305  0.58618671  0.76182564
   0.58923049  0.02086353  0.66232626
   0.30732778  0.03403660  0.35222932
   0.23699434  0.07734333  0.58103522
   0.28344971  0.08299694  0.99143750
   0.65317245  0.31810270  0.33144265
   0.65833512  0.27340681  0.61534881
   0.01007966  0.63717465  0.70459427
   0.03448986  0.56826499  0.94273957
   0.54337937  0.32549855  0.11276285
   0.04874429  0.66928663  0.37332615
   0.09191894  0.69522115  0.62019419
   0.37750844  0.99059596  0.68412429
   0.41791191  0.02231575  0.92434025
   0.09470571  0.64010357  0.01077057
   0.70462503  0.98028714  0.64319108
   0.77647825  0.95973243  0.42867318
   0.73434617  0.93412673  0.00154674
   0.35984795  0.69425039  0.49338812
   0.29643020  0.77706214  0.33033308
   0.98153559  0.38458940  0.28385325
   0.96415280  0.44792929  0.03437527
   0.34094593  0.72608493  0.91498266
   0.98090792  0.30926512  0.61422537
   0.92464024  0.31186336  0.35034483
   0.63590436  0.00335538  0.30824092
   0.60477346  0.96532042  0.06385346
   0.91486900  0.36205151  0.94266588
   0.95453885  0.75984193  0.68023345
   0.97922951  0.71035154  0.03862456
   0.90950311  0.75365592  0.27750643
   0.31472105  0.94133917  0.64375930
   0.33877319  0.96103101  0.01329212
   0.36802232  0.88992953  0.24466510
   0.98547052  0.61604155  0.33758665
   0.77207590  0.27408729  0.65198260
   0.69376996  0.37232242  0.99766764
   0.76795100  0.30819664  0.20633442
   0.42556058  0.96677021  0.32243907
   0.68271219  0.41334702  0.54765009
   0.70769737  0.47559170  0.69304442
   0.75916694  0.41985016  0.42346827
   0.77482872  0.12639059  0.61589223
   0.72567381  0.17736354  0.89151994
   0.74106957  0.08239559  0.81447216
   0.11576369  0.21673289  0.20944991
   0.15790225  0.16948049  0.33181083
   0.09266317  0.26700168  0.87268588
   0.13290555  0.21788658  0.01121663
   0.64784063  0.13847128  0.27158597
   0.64496464  0.18603505  0.39357671
   0.62886237  0.10729481  0.92747266
   0.62215294  0.15356656  0.07792553
   0.00440188  0.45465493  0.55776053
   0.01320697  0.49387070  0.68263508
   0.23639236  0.65768017  0.24973277
   0.18604468  0.67346844  0.36581551
   0.28922396  0.61604321  0.92294890
   0.23952172  0.63169240  0.05743673
   0.55183868  0.00625067  0.57451556
   0.50706171  0.00837844  0.69075543
   0.25500034  0.07575927  0.41018969
   0.21432664  0.12434012  0.26622099
   0.23134886  0.12448579  0.06556576
   0.18962245  0.17224597  0.94549032
   0.64127409  0.28237872  0.43637446
   0.61929532  0.24630799  0.33265732
   0.01777036  0.58633238  0.76111415
   0.00703239  0.54816527  0.61800360
   0.58546973  0.26206265  0.15126961
   0.58879847  0.21629586  0.02200887
   0.09166483  0.67798199  0.43670422
   0.13954724  0.66560490  0.29986960
   0.41857021  0.00307769  0.74720869
   0.46503626  0.99558613  0.61299520
   0.14033182  0.64403305  0.09940792
   0.19205555  0.62577515  0.98683683
   0.75950803  0.94837740  0.58875647
   0.80280619  0.89801062  0.72052639
   0.78711635  0.89502207  0.92033618
   0.83044808  0.84699884  0.03622129
   0.32543524  0.75394999  0.48699990
   0.32514536  0.79370996  0.65026407
   0.97715541  0.43348010  0.21365707
   0.98802669  0.47197577  0.35522029
   0.33767708  0.77644052  0.85444479
   0.34459439  0.81640956  0.98392993
   0.93647816  0.30888885  0.53803023
   0.89264879  0.30958302  0.67501635
   0.60110905  0.98573440  0.23987599
   0.55412023  0.98929811  0.37112639
   0.88267357  0.34053048  0.86204651
   0.83250936  0.34986622  0.96641816
   0.90139271  0.80372542  0.76413779
   0.85906881  0.85324594  0.64767211
   0.92610022  0.75375281  0.10010496
   0.88627723  0.80204670  0.96389486
   0.32203070  0.89014511  0.71957310
   0.31533247  0.85016759  0.59197298
   0.34908809  0.90913828  0.06845781
   0.33802612  0.87135262  0.92376489
   0.99150020  0.56538710  0.41158357
   0.98184969  0.52613282  0.28930652
   0.80830052  0.29357795  0.72171264
   0.85677409  0.28589817  0.61157225
   0.74961104  0.33570407  0.04342075
   0.79737262  0.32612271  0.90456142
   0.46650017  0.97894165  0.41149732
   0.51248703  0.97538579  0.29260009
   0.71875631  0.43801114  0.55313639
   0.74731902  0.12672328  0.77717016
   0.58496702  0.32482222  0.98841366
   0.14526375  0.16885926  0.48444419
   0.67034109  0.17244454  0.53196899
   0.02552743  0.48104798  0.83706511
   0.18338835  0.69261876  0.51471430
   0.50516585  0.02146631  0.84665690
   0.20199991  0.17339328  0.79334188
   0.55785078  0.22952598  0.89479843
   0.19341746  0.60840833  0.83670710
   0.81914633  0.84414640  0.18838208
   0.35585795  0.80366058  0.13898777
   0.81790139  0.38214340  0.09180963
   0.87016551  0.85577050  0.49481003
   0.30484511  0.86300221  0.43726138
   0.96972567  0.53884395  0.13465957
   0.86659358  0.26045001  0.47058689
   0.51452494  0.96251056  0.13724810
   0.30784269  0.61942046  0.54748093
   0.04205148  0.32145014  0.48965135
   0.63192804  0.05850039  0.54011473
   0.03357113  0.69699441  0.81411363
   0.36410678  0.01898694  0.12263298
   0.29399306  0.01992219  0.78610842
   0.64154991  0.33908579  0.04356922
   0.64238544  0.25101258  0.89281601
   0.03686847  0.62491235  0.14608754
   0.65132994  0.98013832  0.86517452
   0.98297382  0.31487309  0.14531444
   0.35014265  0.65822155  0.72242365
   0.71151706  0.99839398  0.20411976
   0.97262934  0.38307788  0.83013525
   0.31749530  0.70284058  0.16001080
   0.71840011  0.33176509  0.44801963
   0.96683617  0.69662279  0.47727140
   0.36842408  0.94699713  0.45677589
   0.83493501  0.36073376  0.37327763
   0.66767679  0.44164648  0.81936871
   0.75827560  0.05997033  0.53529639
   0.75880289  0.20812555  0.69132199
Co–organic framework                  
           1
    26.164737    0.138307   -0.319847
    13.202605   21.872806   -0.352142
    -0.085939   -0.057416    6.787546
   O    C    H    Co   Li
  54  67  16  18   4
Direct configuration=     3
   0.06190605  0.25750812  0.28577359
   0.04240045  0.31078359  0.94542707
   0.10696051  0.26673204  0.69532764
   0.67837431  0.08231486  0.34864788
   0.65233150  0.05202363  0.98358168
   0.61023607  0.12396901  0.75128655
   0.01266092  0.40263796  0.63189314
   0.28068802  0.66573753  0.32077363
   0.32510500  0.63595793  0.95476401
   0.29306920  0.58633088  0.76181771
   0.58932463  0.02083580  0.66198087
   0.30749139  0.03392628  0.35157487
   0.23696582  0.07720371  0.58161074
   0.28387776  0.08236145  0.99073042
   0.65305632  0.31795560  0.33173813
   0.65832247  0.27333725  0.61546252
   0.01004818  0.63719820  0.70473630
   0.03447200  0.56783700  0.93976729
   0.54341787  0.32540177  0.11251758
   0.04903124  0.66971879  0.37501543
   0.09233767  0.69528079  0.61843908
   0.37805489  0.99099662  0.68586114
   0.41777266  0.02218134  0.92537884
   0.09535658  0.64020047  0.01253131
   0.70465204  0.98024231  0.64345248
   0.77630994  0.95977164  0.42778553
   0.73406185  0.93438395  0.00192450
   0.35993300  0.69414850  0.49315753
   0.29622615  0.77732382  0.32974326
   0.98153553  0.38457482  0.28384895
   0.96412080  0.44799832  0.03418592
   0.34104670  0.72567090  0.91653324
   0.98101579  0.30926994  0.61442472
   0.92466574  0.31181200  0.35053247
   0.63598359  0.00334898  0.30838225
   0.60485828  0.96542174  0.06327735
   0.91514355  0.36205625  0.94289033
   0.95406421  0.76019250  0.68067709
   0.97868832  0.71055626  0.04024387
   0.90932223  0.75382834  0.27714605
   0.31453437  0.94147208  0.64546030
   0.33901437  0.96119237  0.01398451
   0.36825939  0.88951871  0.24327618
   0.98549623  0.61614287  0.33808212
   0.77215192  0.27398696  0.65220696
   0.69369693  0.37236286  0.99776116
   0.76803094  0.30811904  0.20639128
   0.42587854  0.96716665  0.32336033
   0.68266767  0.41330763  0.54764184
   0.70768906  0.47571968  0.69334937
   0.75926444  0.41984495  0.42327347
   0.77481601  0.12629695  0.61619922
   0.72570704  0.17718996  0.89142480
   0.74105058  0.08230901  0.81439945
   0.11587067  0.21665502  0.20949099
   0.15780534  0.16953261  0.33204091
   0.09260674  0.26706744  0.87260962
   0.13291494  0.21790364  0.01118310
   0.64772084  0.13871284  0.27151375
   0.64498601  0.18597129  0.39346996
   0.62894834  0.10736490  0.92772487
   0.62216229  0.15353756  0.07781947
   0.00438725  0.45477861  0.55752191
   0.01324434  0.49384539  0.68271411
   0.23604539  0.65771745  0.24901518
   0.18615024  0.67347429  0.36588843
   0.28904751  0.61589373  0.92348409
   0.23958543  0.63168099  0.05756685
   0.55177555  0.00613838  0.57462415
   0.50714689  0.00836001  0.69077699
   0.25497368  0.07587593  0.40872466
   0.21447628  0.12419909  0.26641316
   0.23117285  0.12458796  0.06647150
   0.18959098  0.17228421  0.94519904
   0.64133809  0.28257107  0.43624753
   0.61930542  0.24621147  0.33254470
   0.01786766  0.58598395  0.76140900
   0.00691810  0.54825469  0.61715015
   0.58542121  0.26200915  0.15169545
   0.58876475  0.21633429  0.02200765
   0.09149966  0.67821176  0.43825526
   0.13954917  0.66546797  0.29916157
   0.41829734  0.00321862  0.74850232
   0.46491688  0.99564661  0.61297850
   0.14057630  0.64392449  0.09960651
   0.19198781  0.62580291  0.98680283
   0.75952917  0.94827021  0.58945956
   0.80272492  0.89813409  0.72053799
   0.78725130  0.89493006  0.92014472
   0.83036480  0.84704063  0.03616537
   0.32544143  0.75397004  0.48754864
   0.32514220  0.79372865  0.65049695
   0.97715111  0.43348149  0.21367024
   0.98804771  0.47194330  0.35543764
   0.33761596  0.77668849  0.85405961
   0.34462102  0.81631611  0.98410979
   0.93634545  0.30890444  0.53780904
   0.89268307  0.30958257  0.67502628
   0.60095909  0.98565516  0.23972023
   0.55427647  0.98925357  0.37094652
   0.88252113  0.34049080  0.86180250
   0.83252810  0.34986937  0.96644315
   0.90146130  0.80368382  0.76341143
   0.85905401  0.85322353  0.64761290
   0.92624422  0.75345639  0.10130742
   0.88628023  0.80208984  0.96363567
   0.32201443  0.88989708  0.72077034
   0.31539889  0.85014088  0.59181307
   0.34907620  0.90904536  0.06839768
   0.33787713  0.87151226  0.92330879
   0.99142100  0.56523348  0.41302783
   0.98187785  0.52620638  0.28907990
   0.80830749  0.29351868  0.72169406
   0.85679614  0.28583449  0.61160361
   0.74967897  0.33566730  0.04346609
   0.79738523  0.32611335  0.90447290
   0.46651451  0.97900560  0.40979310
   0.51241646  0.97544116  0.29296495
   0.71871078  0.43798283  0.55300035
   0.74737688  0.12690656  0.77703610
   0.58453733  0.32508417  0.98890303
   0.14525234  0.16885426  0.48438458
   0.67033127  0.17244784  0.53190108
   0.02554614  0.48104355  0.83703334
   0.18335906  0.69263005  0.51467201
   0.50515988  0.02145633  0.84653134
   0.20201902  0.17341396  0.79317065
   0.55786468  0.22951688  0.89486150
   0.19341297  0.60840714  0.83672767
   0.81915435  0.84412552  0.18829688
   0.35584442  0.80367706  0.13889738
   0.81789828  0.38214541  0.09173174
   0.87017367  0.85575022  0.49494571
   0.30479828  0.86302776  0.43710742
   0.96968319  0.53886109  0.13457482
   0.86660254  0.26041913  0.47056503
   0.51450311  0.96251693  0.13721164
   0.30783554  0.61938062  0.54781196
   0.04187042  0.32156632  0.48965068
   0.63183776  0.05904059  0.54159665
   0.03379918  0.69622308  0.81241141
   0.36453113  0.01954654  0.12330290
   0.29384512  0.02103656  0.78664386
   0.64157388  0.33893437  0.04284201
   0.64263235  0.25086859  0.89255697
   0.03557404  0.62545666  0.14409984
   0.65124587  0.97944667  0.86461584
   0.98286668  0.31499515  0.14565756
   0.34989563  0.65837211  0.72077985
   0.71223591  0.99820453  0.20428058
   0.97249245  0.38306700  0.82994897
   0.31736635  0.70297948  0.16067904
   0.71832293  0.33189299  0.44773656
   0.96725361  0.69624230  0.47775320
   0.36767395  0.94654543  0.45269234
   0.83488989  0.36073670  0.37324659
   0.66766382  0.44168361  0.81936966
   0.75837382  0.05996202  0.53524167
   0.75885391  0.20814998  0.69120101
Co–organic framework                  
           1
    26.121901    0.156434   -0.317560
    13.196237   21.860945   -0.347149
    -0.085390   -0.056325    6.776166
   O    C    H    Co   Li
  54  67  16  18   4
Direct configuration=     4
   0.06189353  0.25751426  0.28574718
   0.04241563  0.31077165  0.94542648
   0.10698747  0.26672106  0.69529522
   0.67837521  0.08221688  0.34862020
   0.65236554  0.05193474  0.98362313
   0.61021860  0.12393894  0.75117601
   0.01268609  0.40259022  0.63191620
   0.28076984  0.66574425  0.32075402
   0.32516043  0.63599776  0.95472021
   0.29305122  0.58637132  0.76181540
   0.58935114  0.02082797  0.66188374
   0.30753746  0.03389528  0.35139087
   0.23695780  0.07716461  0.58177269
   0.28399830  0.08218314  0.99053192
   0.65302363  0.31791449  0.33182135
   0.65831891  0.27331777  0.61549455
   0.01003932  0.63720481  0.70477624
   0.03446696  0.56771729  0.93893180
   0.54342871  0.32537465  0.11244867
   0.04911204  0.66983950  0.37549007
   0.09245557  0.69529722  0.61794538
   0.37820876  0.99110829  0.68634910
   0.41773346  0.02214376  0.92567102
   0.09553987  0.64022698  0.01302617
   0.70465965  0.98022971  0.64352600
   0.77626255  0.95978281  0.42753595
   0.73398178  0.93445620  0.00203062
   0.35995695  0.69411990  0.49309274
   0.29616868  0.77739731  0.32957728
   0.98153551  0.38457074  0.28384775
   0.96411179  0.44801769  0.03413264
   0.34107510  0.72555479  0.91696952
   0.98104617  0.30927119  0.61448074
   0.92467293  0.31179758  0.35058526
   0.63600591  0.00334711  0.30842197
   0.60488215  0.96545007  0.06311525
   0.91522086  0.36205734  0.94295336
   0.95393055  0.76029106  0.68080173
   0.97853593  0.71061398  0.04069923
   0.90927128  0.75387679  0.27704464
   0.31448181  0.94150939  0.64593857
   0.33908229  0.96123732  0.01417903
   0.36832614  0.88940352  0.24288585
   0.98550346  0.61617120  0.33822136
   0.77217333  0.27395879  0.65227010
   0.69367636  0.37237424  0.99778745
   0.76805346  0.30809724  0.20640730
   0.42596806  0.96727737  0.32361902
   0.68265514  0.41329664  0.54763956
   0.70768671  0.47575552  0.69343503
   0.75929190  0.41984342  0.42321866
   0.77481243  0.12627073  0.61628562
   0.72571641  0.17714132  0.89139816
   0.74104523  0.08228478  0.81437907
   0.11590079  0.21663311  0.20950256
   0.15777806  0.16954729  0.33210560
   0.09259084  0.26708590  0.87258815
   0.13291759  0.21790841  0.01117365
   0.64768710  0.13878059  0.27149331
   0.64499203  0.18595342  0.39343998
   0.62897255  0.10738444  0.92779571
   0.62216492  0.15352943  0.07778967
   0.00438313  0.45481327  0.55745473
   0.01325487  0.49383826  0.68273634
   0.23594769  0.65772821  0.24881347
   0.18617996  0.67347584  0.36590889
   0.28899783  0.61585199  0.92363474
   0.23960337  0.63167774  0.05760343
   0.55175777  0.00610698  0.57465479
   0.50717088  0.00835477  0.69078304
   0.25496616  0.07590869  0.40831263
   0.21451842  0.12415946  0.26646726
   0.23112329  0.12461668  0.06672616
   0.18958212  0.17229496  0.94511712
   0.64135610  0.28262490  0.43621169
   0.61930826  0.24618444  0.33251309
   0.01789507  0.58588627  0.76149213
   0.00688591  0.54827987  0.61691013
   0.58540755  0.26199418  0.15181525
   0.58875526  0.21634508  0.02200728
   0.09145315  0.67827618  0.43869129
   0.13954971  0.66542965  0.29896257
   0.41822051  0.00325826  0.74886606
   0.46488326  0.99566366  0.61297380
   0.14064515  0.64389386  0.09966237
   0.19196873  0.62581074  0.98679326
   0.75953513  0.94824014  0.58965733
   0.80270204  0.89816874  0.72054119
   0.78728930  0.89490419  0.92009091
   0.83034135  0.84705241  0.03614964
   0.32544318  0.75397562  0.48770293
   0.32514130  0.79373387  0.65056242
   0.97714989  0.43348188  0.21367394
   0.98805363  0.47193417  0.35549877
   0.33759874  0.77675800  0.85395114
   0.34462853  0.81628990  0.98416042
   0.93630808  0.30890893  0.53774686
   0.89269272  0.30958242  0.67502906
   0.60091687  0.98563310  0.23967653
   0.55432047  0.98924097  0.37089594
   0.88247821  0.34047983  0.86173396
   0.83253338  0.34987023  0.96645017
   0.90148061  0.80367214  0.76320719
   0.85904984  0.85321727  0.64759627
   0.92628479  0.75337320  0.10164572
   0.88628107  0.80210193  0.96356275
   0.32200987  0.88982758  0.72110718
   0.31541759  0.85013335  0.59176811
   0.34907286  0.90901935  0.06838084
   0.33783517  0.87155712  0.92318047
   0.99139871  0.56519046  0.41343409
   0.98188577  0.52622697  0.28901612
   0.80830945  0.29350208  0.72168888
   0.85680236  0.28581663  0.61161247
   0.74969810  0.33565694  0.04347884
   0.79738879  0.32611073  0.90444801
   0.46651854  0.97902357  0.40931383
   0.51239659  0.97545671  0.29306753
   0.71869795  0.43797495  0.55296213
   0.74739316  0.12695785  0.77699826
   0.58441633  0.32515787  0.98904057
   0.14524913  0.16885288  0.48436782
   0.67032850  0.17244878  0.53188199
   0.02555141  0.48104229  0.83702441
   0.18335082  0.69263324  0.51466012
   0.50515819  0.02145354  0.84649604
   0.20202439  0.17341974  0.79312248
   0.55786860  0.22951432  0.89487924
   0.19341171  0.60840681  0.83673346
   0.81915661  0.84411967  0.18827293
   0.35584061  0.80368170  0.13887195
   0.81789740  0.38214598  0.09170984
   0.87017597  0.85574452  0.49498387
   0.30478510  0.86303496  0.43706412
   0.96967122  0.53886594  0.13455099
   0.86660507  0.26041047  0.47055890
   0.51449696  0.96251874  0.13720139
   0.30783354  0.61936945  0.54790507
   0.04181944  0.32159901  0.48965046
   0.63181233  0.05919189  0.54201300
   0.03386341  0.69600695  0.81193324
   0.36465061  0.01970288  0.12349076
   0.29380344  0.02134875  0.78679367
   0.64158062  0.33889198  0.04263762
   0.64270187  0.25082807  0.89248416
   0.03520952  0.62561029  0.14354089
   0.65122221  0.97925306  0.86445926
   0.98283651  0.31502942  0.14575399
   0.34982606  0.65841457  0.72031758
   0.71243834  0.99815086  0.20432573
   0.97245390  0.38306407  0.82989663
   0.31733004  0.70301846  0.16086689
   0.71830120  0.33192889  0.44765690
   0.96737117  0.69613537  0.47788883
   0.36746271  0.94641975  0.45154459
   0.83487718  0.36073756  0.37323787
   0.66766017  0.44169402  0.81936991
   0.75840148  0.05995961  0.53522626
   0.75886827  0.20815678  0.69116696
Co–organic framework                  
           1
    26.076792    0.175523   -0.315152
    13.189531   21.848455   -0.341891
    -0.084812   -0.055176    6.764181
   O    C    H    Co   Li
  54  67  16  18   4
Direct configuration=     5
   0.06188031  0.25752073  0.28571933
   0.04243165  0.31075906  0.94542588
   0.10701593  0.26670947  0.69526102
   0.67837616  0.08211366  0.34859108
   0.65240145  0.05184105  0.98366691
   0.61020017  0.12390729  0.75105943
   0.01271266  0.40253989  0.63194056
   0.28085618  0.66575126  0.32073331
   0.32521892  0.63603968  0.95467396
   0.29303224  0.58641393  0.76181293
   0.58937912  0.02081970  0.66178129
   0.30758607  0.03386259  0.35119679
   0.23694934  0.07712341  0.58194354
   0.28412551  0.08199517  0.99032264
   0.65298913  0.31787119  0.33190918
   0.65831515  0.27329725  0.61552835
   0.01002997  0.63721178  0.70481835
   0.03446165  0.56759120  0.93805060
   0.54344015  0.32534606  0.11237600
   0.04919730  0.66996659  0.37599061
   0.09257996  0.69531445  0.61742458
   0.37837113  0.99122579  0.68686368
   0.41769210  0.02210419  0.92597926
   0.09573328  0.64025472  0.01354809
   0.70466768  0.98021644  0.64360357
   0.77621253  0.95979462  0.42727269
   0.73389730  0.93453240  0.00214253
   0.35998222  0.69408975  0.49302441
   0.29610803  0.77747480  0.32940216
   0.98153549  0.38456643  0.28384649
   0.96410227  0.44803810  0.03407642
   0.34110508  0.72543241  0.91742980
   0.98107822  0.30927247  0.61453983
   0.92468051  0.31178239  0.35064096
   0.63602945  0.00334513  0.30846386
   0.60490734  0.96547990  0.06294424
   0.91530244  0.36205842  0.94301983
   0.95378951  0.76039502  0.68093317
   0.97837514  0.71067491  0.04117955
   0.90921753  0.75392790  0.27693765
   0.31442635  0.94154871  0.64644305
   0.33915395  0.96128462  0.01438416
   0.36839659  0.88928211  0.24247418
   0.98551110  0.61620104  0.33836822
   0.77219593  0.27392909  0.65233672
   0.69365466  0.37238625  0.99781518
   0.76807722  0.30807425  0.20642421
   0.42606253  0.96739393  0.32389177
   0.68264191  0.41328507  0.54763716
   0.70768424  0.47579328  0.69352536
   0.75932087  0.41984178  0.42316085
   0.77480866  0.12624309  0.61637677
   0.72572629  0.17709006  0.89137010
   0.74103959  0.08225926  0.81435759
   0.11593258  0.21661001  0.20951477
   0.15774926  0.16956276  0.33217384
   0.09257407  0.26710538  0.87256549
   0.13292038  0.21791343  0.01116368
   0.64765149  0.13885201  0.27147170
   0.64499838  0.18593459  0.39340837
   0.62899809  0.10740501  0.92787042
   0.62216769  0.15352087  0.07775823
   0.00437877  0.45484979  0.55738384
   0.01326598  0.49383075  0.68275979
   0.23584458  0.65773965  0.24860072
   0.18621132  0.67347744  0.36593047
   0.28894541  0.61580805  0.92379369
   0.23962230  0.63167429  0.05764201
   0.55173902  0.00607391  0.57468713
   0.50719619  0.00834924  0.69078942
   0.25495822  0.07594323  0.40787798
   0.21456289  0.12411766  0.26652434
   0.23107099  0.12464697  0.06699479
   0.18957277  0.17230630  0.94503070
   0.64137510  0.28268159  0.43617383
   0.61931127  0.24615595  0.33247978
   0.01792400  0.58578332  0.76157989
   0.00685194  0.54830644  0.61665694
   0.58539314  0.26197842  0.15194163
   0.58874524  0.21635646  0.02200690
   0.09140408  0.67834408  0.43915119
   0.13955028  0.66538928  0.29875269
   0.41813943  0.00330007  0.74924974
   0.46484779  0.99568164  0.61296883
   0.14071780  0.64386154  0.09972128
   0.19194860  0.62581901  0.98678318
   0.75954142  0.94820845  0.58986597
   0.80267789  0.89820527  0.72054455
   0.78732940  0.89487690  0.92003416
   0.83031660  0.84706484  0.03613305
   0.32544503  0.75398150  0.48786568
   0.32514036  0.79373938  0.65063148
   0.97714862  0.43348229  0.21367785
   0.98805989  0.47192455  0.35556327
   0.33758057  0.77683127  0.85383668
   0.34463645  0.81626228  0.98421385
   0.93626865  0.30891370  0.53768129
   0.89270290  0.30958225  0.67503199
   0.60087231  0.98560990  0.23963046
   0.55436689  0.98922766  0.37084257
   0.88243291  0.34046831  0.86166168
   0.83253895  0.34987114  0.96645757
   0.90150099  0.80365983  0.76299176
   0.85904545  0.85321067  0.64757874
   0.92632760  0.75328550  0.10200262
   0.88628196  0.80211467  0.96348583
   0.32200506  0.88975433  0.72146254
   0.31543732  0.85012540  0.59172067
   0.34906933  0.90899195  0.06836310
   0.33779088  0.87160443  0.92304509
   0.99137520  0.56514513  0.41386265
   0.98189413  0.52624866  0.28894882
   0.80831153  0.29348458  0.72168342
   0.85680892  0.28579781  0.61162183
   0.74971828  0.33564601  0.04349229
   0.79739253  0.32610796  0.90442176
   0.46652278  0.97904253  0.40880827
   0.51237563  0.97547311  0.29317573
   0.71868443  0.43796666  0.55292183
   0.74741034  0.12701187  0.77695830
   0.58428865  0.32523563  0.98918564