   1   1   0   0
  0.9831862E+03  0.9813847E-09  0.9813847E-09  0.1269558E-08  0.5000000E-15
  1.000000000000000E-004
  CAR 
 Co–organic framework                  
      5.13820747    -26.43451025  301     -7.06333240      1.00000000
    -26.435  0.0000E+00  0.0000E+00  0.0000E+00  0.0000E+00
    -26.329  0.0000E+00  0.0000E+00  0.0000E+00  0.0000E+00
    -26.224  0.0000E+00  0.0000E+00  0.0000E+00  0.0000E+00
    -26.119  0.0000E+00  0.0000E+00  0.0000E+00  0.0000E+00
    -26.014  0.0000E+00  0.0000E+00  0.0000E+00  0.0000E+00
    -25.908  0.0000E+00  0.0000E+00  0.0000E+00  0.0000E+00
    -25.803  0.0000E+00  0.0000E+00  0.0000E+00  0.0000E+00
    -25.698  0.0000E+00  0.0000E+00  0.0000E+00  0.0000E+00
    -25.593  0.0000E+00  0.0000E+00  0.0000E+00  0.0000E+00
    -25.487  0.0000E+00  0.0000E+00  0.0000E+00  0.0000E+00
    -25.382  0.0000E+00  0.0000E+00  0.0000E+00  0.0000E+00
    -25.277  0.0000E+00  0.2004E-16  0.0000E+00  0.2109E-17
    -25.172  0.0000E+00  0.5276E-08  0.0000E+00  0.5553E-09
    -25.066  0.0000E+00  0.2765E-03  0.0000E+00  0.2909E-04
    -24.961  0.0000E+00  0.7900E-02  0.0000E+00  0.8605E-03
    -24.856  0.0000E+00  0.1326E-02  0.0000E+00  0.1000E-02
    -24.751  0.0000E+00  0.2340E-06  0.0000E+00  0.1000E-02
    -24.645  0.0000E+00  0.9410E-14  0.0000E+00  0.1000E-02
    -24.540  0.0000E+00  0.0000E+00  0.0000E+00  0.1000E-02
    -24.435  0.0000E+00  0.0000E+00  0.0000E+00  0.1000E-02
    -24.330  0.0000E+00  0.0000E+00  0.0000E+00  0.1000E-02
    -24.224  0.0000E+00  0.0000E+00  0.0000E+00  0.1000E-02
    -24.119  0.0000E+00  0.0000E+00  0.0000E+00  0.1000E-02
    -24.014  0.0000E+00  0.0000E+00  0.0000E+00  0.1000E-02
    -23.909  0.0000E+00  0.0000E+00  0.0000E+00  0.1000E-02
    -23.803  0.0000E+00  0.0000E+00  0.0000E+00  0.1000E-02
    -23.698  0.0000E+00  0.0000E+00  0.0000E+00  0.1000E-02
    -23.593  0.0000E+00  0.0000E+00  0.0000E+00  0.1000E-02
    -23.488  0.0000E+00  0.0000E+00  0.0000E+00  0.1000E-02
    -23.382  0.0000E+00  0.0000E+00  0.0000E+00  0.1000E-02
    -23.277  0.0000E+00  0.0000E+00  0.0000E+00  0.1000E-02
    -23.172  0.0000E+00  0.0000E+00  0.0000E+00  0.1000E-02
    -23.067  0.0000E+00  0.0000E+00  0.0000E+00  0.1000E-02
    -22.962  0.0000E+00  0.0000E+00  0.0000E+00  0.1000E-02
    -22.856  0.0000E+00  0.0000E+00  0.0000E+00  0.1000E-02
    -22.751  0.0000E+00  0.0000E+00  0.0000E+00  0.1000E-02
    -22.646  0.0000E+00  0.0000E+00  0.0000E+00  0.1000E-02
    -22.541  0.0000E+00  0.0000E+00  0.0000E+00  0.1000E-02
    -22.435  0.0000E+00  0.0000E+00  0.0000E+00  0.1000E-02
    -22.330  0.0000E+00  0.0000E+00  0.0000E+00  0.1000E-02
    -22.225  0.0000E+00  0.0000E+00  0.0000E+00  0.1000E-02
    -22.120  0.0000E+00  0.0000E+00  0.0000E+00  0.1000E-02
    -22.014  0.0000E+00  0.0000E+00  0.0000E+00  0.1000E-02
    -21.909  0.0000E+00  0.0000E+00  0.0000E+00  0.1000E-02
    -21.804  0.0000E+00  0.0000E+00  0.0000E+00  0.1000E-02
    -21.699  0.0000E+00  0.0000E+00  0.0000E+00  0.1000E-02
    -21.593  0.5048E-15  0.0000E+00  0.5312E-16  0.1000E-02
    -21.488  0.3964E-07  0.0000E+00  0.4172E-08  0.1000E-02
    -21.383  0.6604E-03  0.0000E+00  0.6951E-04  0.1000E-02
    -21.278  0.8203E-02  0.0000E+00  0.9328E-03  0.1000E-02
    -21.172  0.6382E-03  0.0000E+00  0.1000E-02  0.1000E-02
    -21.067  0.3648E-07  0.0000E+00  0.1000E-02  0.1000E-02
    -20.962  0.4410E-15  0.0000E+00  0.1000E-02  0.1000E-02
    -20.857  0.0000E+00  0.0000E+00  0.1000E-02  0.1000E-02
    -20.751  0.0000E+00  0.0000E+00  0.1000E-02  0.1000E-02
    -20.646  0.0000E+00  0.0000E+00  0.1000E-02  0.1000E-02
    -20.541  0.0000E+00  0.0000E+00  0.1000E-02  0.1000E-02
    -20.436  0.0000E+00  0.0000E+00  0.1000E-02  0.1000E-02
    -20.330  0.0000E+00  0.0000E+00  0.1000E-02  0.1000E-02
    -20.225  0.0000E+00  0.0000E+00  0.1000E-02  0.1000E-02
    -20.120  0.0000E+00  0.0000E+00  0.1000E-02  0.1000E-02
    -20.015  0.0000E+00  0.0000E+00  0.1000E-02  0.1000E-02
    -19.909  0.0000E+00  0.0000E+00  0.1000E-02  0.1000E-02
    -19.804  0.0000E+00  0.0000E+00  0.1000E-02  0.1000E-02
    -19.699  0.0000E+00  0.0000E+00  0.1000E-02  0.1000E-02
    -19.594  0.0000E+00  0.0000E+00  0.1000E-02  0.1000E-02
    -19.489  0.0000E+00  0.0000E+00  0.1000E-02  0.1000E-02
    -19.383  0.0000E+00  0.0000E+00  0.1000E-02  0.1000E-02
    -19.278  0.0000E+00  0.0000E+00  0.1000E-02  0.1000E-02
    -19.173  0.0000E+00  0.0000E+00  0.1000E-02  0.1000E-02
    -19.068  0.0000E+00  0.0000E+00  0.1000E-02  0.1000E-02
    -18.962  0.0000E+00  0.0000E+00  0.1000E-02  0.1000E-02
    -18.857  0.0000E+00  0.0000E+00  0.1000E-02  0.1000E-02
    -18.752  0.0000E+00  0.0000E+00  0.1000E-02  0.1000E-02
    -18.647  0.0000E+00  0.0000E+00  0.1000E-02  0.1000E-02
    -18.541  0.0000E+00  0.0000E+00  0.1000E-02  0.1000E-02
    -18.436  0.0000E+00  0.0000E+00  0.1000E-02  0.1000E-02
    -18.331  0.0000E+00  0.0000E+00  0.1000E-02  0.1000E-02
    -18.226  0.0000E+00  0.0000E+00  0.1000E-02  0.1000E-02
    -18.120  0.0000E+00  0.0000E+00  0.1000E-02  0.1000E-02
    -18.015  0.0000E+00  0.0000E+00  0.1000E-02  0.1000E-02
    -17.910  0.0000E+00  0.0000E+00  0.1000E-02  0.1000E-02
    -17.805  0.0000E+00  0.0000E+00  0.1000E-02  0.1000E-02
    -17.699  0.0000E+00  0.0000E+00  0.1000E-02  0.1000E-02
    -17.594  0.0000E+00  0.0000E+00  0.1000E-02  0.1000E-02
    -17.489  0.0000E+00  0.0000E+00  0.1000E-02  0.1000E-02
    -17.384  0.0000E+00  0.0000E+00  0.1000E-02  0.1000E-02
    -17.278  0.0000E+00  0.0000E+00  0.1000E-02  0.1000E-02
    -17.173  0.0000E+00  0.0000E+00  0.1000E-02  0.1000E-02
    -17.068  0.0000E+00  0.0000E+00  0.1000E-02  0.1000E-02
    -16.963  0.0000E+00  0.0000E+00  0.1000E-02  0.1000E-02
    -16.857  0.0000E+00  0.0000E+00  0.1000E-02  0.1000E-02
    -16.752  0.0000E+00  0.0000E+00  0.1000E-02  0.1000E-02
    -16.647  0.0000E+00  0.0000E+00  0.1000E-02  0.1000E-02
    -16.542  0.0000E+00  0.0000E+00  0.1000E-02  0.1000E-02
    -16.436  0.0000E+00  0.0000E+00  0.1000E-02  0.1000E-02
    -16.331  0.0000E+00  0.0000E+00  0.1000E-02  0.1000E-02
    -16.226  0.0000E+00  0.0000E+00  0.1000E-02  0.1000E-02
    -16.121  0.0000E+00  0.0000E+00  0.1000E-02  0.1000E-02
    -16.016  0.0000E+00  0.0000E+00  0.1000E-02  0.1000E-02
    -15.910  0.0000E+00  0.0000E+00  0.1000E-02  0.1000E-02
    -15.805  0.0000E+00  0.0000E+00  0.1000E-02  0.1000E-02
    -15.700  0.0000E+00  0.0000E+00  0.1000E-02  0.1000E-02
    -15.595  0.0000E+00  0.0000E+00  0.1000E-02  0.1000E-02
    -15.489  0.0000E+00  0.0000E+00  0.1000E-02  0.1000E-02
    -15.384  0.0000E+00  0.0000E+00  0.1000E-02  0.1000E-02
    -15.279  0.0000E+00  0.0000E+00  0.1000E-02  0.1000E-02
    -15.174  0.0000E+00  0.0000E+00  0.1000E-02  0.1000E-02
    -15.068  0.0000E+00  0.0000E+00  0.1000E-02  0.1000E-02
    -14.963  0.0000E+00  0.0000E+00  0.1000E-02  0.1000E-02
    -14.858  0.0000E+00  0.0000E+00  0.1000E-02  0.1000E-02
    -14.753  0.0000E+00  0.0000E+00  0.1000E-02  0.1000E-02
    -14.647  0.0000E+00  0.0000E+00  0.1000E-02  0.1000E-02
    -14.542  0.0000E+00  0.0000E+00  0.1000E-02  0.1000E-02
    -14.437  0.0000E+00  0.0000E+00  0.1000E-02  0.1000E-02
    -14.332  0.0000E+00  0.0000E+00  0.1000E-02  0.1000E-02
    -14.226  0.0000E+00  0.0000E+00  0.1000E-02  0.1000E-02
    -14.121  0.0000E+00  0.0000E+00  0.1000E-02  0.1000E-02
    -14.016  0.0000E+00  0.0000E+00  0.1000E-02  0.1000E-02
    -13.911  0.0000E+00  0.0000E+00  0.1000E-02  0.1000E-02
    -13.805  0.0000E+00  0.0000E+00  0.1000E-02  0.1000E-02
    -13.700  0.0000E+00  0.0000E+00  0.1000E-02  0.1000E-02
    -13.595  0.0000E+00  0.0000E+00  0.1000E-02  0.1000E-02
    -13.490  0.0000E+00  0.0000E+00  0.1000E-02  0.1000E-02
    -13.384  0.0000E+00  0.0000E+00  0.1000E-02  0.1000E-02
    -13.279  0.0000E+00  0.0000E+00  0.1000E-02  0.1000E-02
    -13.174  0.0000E+00  0.0000E+00  0.1000E-02  0.1000E-02
    -13.069  0.0000E+00  0.0000E+00  0.1000E-02  0.1000E-02
    -12.963  0.0000E+00  0.0000E+00  0.1000E-02  0.1000E-02
    -12.858  0.0000E+00  0.0000E+00  0.1000E-02  0.1000E-02
    -12.753  0.0000E+00  0.0000E+00  0.1000E-02  0.1000E-02
    -12.648  0.0000E+00  0.0000E+00  0.1000E-02  0.1000E-02
    -12.543  0.0000E+00  0.0000E+00  0.1000E-02  0.1000E-02
    -12.437  0.0000E+00  0.0000E+00  0.1000E-02  0.1000E-02
    -12.332  0.0000E+00  0.0000E+00  0.1000E-02  0.1000E-02
    -12.227  0.0000E+00  0.0000E+00  0.1000E-02  0.1000E-02
    -12.122  0.0000E+00  0.0000E+00  0.1000E-02  0.1000E-02
    -12.016  0.0000E+00  0.0000E+00  0.1000E-02  0.1000E-02
    -11.911  0.0000E+00  0.0000E+00  0.1000E-02  0.1000E-02
    -11.806  0.0000E+00  0.0000E+00  0.1000E-02  0.1000E-02
    -11.701  0.0000E+00  0.0000E+00  0.1000E-02  0.1000E-02
    -11.595  0.0000E+00  0.0000E+00  0.1000E-02  0.1000E-02
    -11.490  0.0000E+00  0.0000E+00  0.1000E-02  0.1000E-02
    -11.385  0.0000E+00  0.0000E+00  0.1000E-02  0.1000E-02
    -11.280  0.0000E+00  0.0000E+00  0.1000E-02  0.1000E-02
    -11.174  0.0000E+00  0.0000E+00  0.1000E-02  0.1000E-02
    -11.069  0.0000E+00  0.0000E+00  0.1000E-02  0.1000E-02
    -10.964  0.0000E+00  0.7490E-16  0.1000E-02  0.1000E-02
    -10.859  0.0000E+00  0.1558E-07  0.1000E-02  0.1000E-02
    -10.753  0.0000E+00  0.6576E-03  0.1000E-02  0.1069E-02
    -10.648  0.0000E+00  0.1601E-01  0.1000E-02  0.2754E-02
    -10.543  0.0000E+00  0.2340E-02  0.1000E-02  0.3000E-02
    -10.438  0.0000E+00  0.3363E-06  0.1000E-02  0.3000E-02
    -10.332  0.0000E+00  0.1086E-13  0.1000E-02  0.3000E-02
    -10.227  0.0000E+00  0.0000E+00  0.1000E-02  0.3000E-02
    -10.122  0.0000E+00  0.0000E+00  0.1000E-02  0.3000E-02
    -10.017  0.0000E+00  0.0000E+00  0.1000E-02  0.3000E-02
     -9.911  0.0000E+00  0.0000E+00  0.1000E-02  0.3000E-02
     -9.806  0.0000E+00  0.0000E+00  0.1000E-02  0.3000E-02
     -9.701  0.0000E+00  0.0000E+00  0.1000E-02  0.3000E-02
     -9.596  0.0000E+00  0.0000E+00  0.1000E-02  0.3000E-02
     -9.490  0.0000E+00  0.0000E+00  0.1000E-02  0.3000E-02
     -9.385  0.0000E+00  0.0000E+00  0.1000E-02  0.3000E-02
     -9.280  0.0000E+00  0.0000E+00  0.1000E-02  0.3000E-02
     -9.175  0.0000E+00  0.0000E+00  0.1000E-02  0.3000E-02
     -9.070  0.0000E+00  0.0000E+00  0.1000E-02  0.3000E-02
     -8.964  0.0000E+00  0.0000E+00  0.1000E-02  0.3000E-02
     -8.859  0.0000E+00  0.1582E-16  0.1000E-02  0.3000E-02
     -8.754  0.0000E+00  0.4547E-08  0.1000E-02  0.3000E-02
     -8.649  0.0000E+00  0.2585E-03  0.1000E-02  0.3027E-02
     -8.543  0.0000E+00  0.7855E-02  0.1000E-02  0.3854E-02
     -8.438  0.0000E+00  0.1388E-02  0.1000E-02  0.4000E-02
     -8.333  0.0000E+00  0.2651E-06  0.1000E-02  0.4000E-02
     -8.228  0.0000E+00  0.1160E-13  0.1000E-02  0.4000E-02
     -8.122  0.0000E+00  0.0000E+00  0.1000E-02  0.4000E-02
     -8.017  0.0000E+00  0.0000E+00  0.1000E-02  0.4000E-02
     -7.912  0.0000E+00  0.0000E+00  0.1000E-02  0.4000E-02
     -7.807  0.0000E+00  0.0000E+00  0.1000E-02  0.4000E-02
     -7.701  0.0000E+00  0.0000E+00  0.1000E-02  0.4000E-02
     -7.596  0.3452E-12  0.0000E+00  0.1000E-02  0.4000E-02
     -7.491  0.1913E-05  0.0000E+00  0.1000E-02  0.4000E-02
     -7.386  0.2727E-02  0.0000E+00  0.1287E-02  0.4000E-02
     -7.280  0.6698E-02  0.0000E+00  0.1992E-02  0.4000E-02
     -7.175  0.7474E-04  0.0000E+00  0.2000E-02  0.4000E-02
     -7.070  0.3314E-09  0.0000E+00  0.2000E-02  0.4000E-02
     -6.965  0.0000E+00  0.0000E+00  0.2000E-02  0.4000E-02
     -6.859  0.0000E+00  0.0000E+00  0.2000E-02  0.4000E-02
     -6.754  0.0000E+00  0.0000E+00  0.2000E-02  0.4000E-02
     -6.649  0.0000E+00  0.0000E+00  0.2000E-02  0.4000E-02
     -6.544  0.0000E+00  0.0000E+00  0.2000E-02  0.4000E-02
     -6.438  0.3433E-13  0.0000E+00  0.2000E-02  0.4000E-02
     -6.333  0.6690E-06  0.0000E+00  0.2000E-02  0.4000E-02
     -6.228  0.3022E-02  0.0000E+00  0.2318E-02  0.4000E-02
     -6.123  0.1553E-01  0.0000E+00  0.3952E-02  0.4000E-02
     -6.017  0.4550E-03  0.0000E+00  0.4000E-02  0.4000E-02
     -5.912  0.6870E-08  0.0000E+00  0.4000E-02  0.4000E-02
     -5.807  0.2110E-16  0.0000E+00  0.4000E-02  0.4000E-02
     -5.702  0.0000E+00  0.0000E+00  0.4000E-02  0.4000E-02
     -5.597  0.0000E+00  0.0000E+00  0.4000E-02  0.4000E-02
     -5.491  0.0000E+00  0.0000E+00  0.4000E-02  0.4000E-02
     -5.386  0.0000E+00  0.0000E+00  0.4000E-02  0.4000E-02
     -5.281  0.0000E+00  0.0000E+00  0.4000E-02  0.4000E-02
     -5.176  0.0000E+00  0.0000E+00  0.4000E-02  0.4000E-02
     -5.070  0.0000E+00  0.0000E+00  0.4000E-02  0.4000E-02
     -4.965  0.0000E+00  0.0000E+00  0.4000E-02  0.4000E-02
     -4.860  0.0000E+00  0.0000E+00  0.4000E-02  0.4000E-02
     -4.755  0.0000E+00  0.0000E+00  0.4000E-02  0.4000E-02
     -4.649  0.0000E+00  0.0000E+00  0.4000E-02  0.4000E-02
     -4.544  0.0000E+00  0.0000E+00  0.4000E-02  0.4000E-02
     -4.439  0.0000E+00  0.0000E+00  0.4000E-02  0.4000E-02
     -4.334  0.0000E+00  0.0000E+00  0.4000E-02  0.4000E-02
     -4.228  0.0000E+00  0.0000E+00  0.4000E-02  0.4000E-02
     -4.123  0.0000E+00  0.0000E+00  0.4000E-02  0.4000E-02
     -4.018  0.0000E+00  0.0000E+00  0.4000E-02  0.4000E-02
     -3.913  0.0000E+00  0.0000E+00  0.4000E-02  0.4000E-02
     -3.807  0.0000E+00  0.0000E+00  0.4000E-02  0.4000E-02
     -3.702  0.0000E+00  0.0000E+00  0.4000E-02  0.4000E-02
     -3.597  0.0000E+00  0.0000E+00  0.4000E-02  0.4000E-02
     -3.492  0.0000E+00  0.0000E+00  0.4000E-02  0.4000E-02
     -3.386  0.0000E+00  0.0000E+00  0.4000E-02  0.4000E-02
     -3.281  0.0000E+00  0.0000E+00  0.4000E-02  0.4000E-02
     -3.176  0.0000E+00  0.0000E+00  0.4000E-02  0.4000E-02
     -3.071  0.0000E+00  0.0000E+00  0.4000E-02  0.4000E-02
     -2.965  0.0000E+00  0.0000E+00  0.4000E-02  0.4000E-02
     -2.860  0.0000E+00  0.0000E+00  0.4000E-02  0.4000E-02
     -2.755  0.0000E+00  0.0000E+00  0.4000E-02  0.4000E-02
     -2.650  0.0000E+00  0.0000E+00  0.4000E-02  0.4000E-02
     -2.544  0.0000E+00  0.0000E+00  0.4000E-02  0.4000E-02
     -2.439  0.0000E+00  0.0000E+00  0.4000E-02  0.4000E-02
     -2.334  0.0000E+00  0.0000E+00  0.4000E-02  0.4000E-02
     -2.229  0.0000E+00  0.0000E+00  0.4000E-02  0.4000E-02
     -2.124  0.0000E+00  0.0000E+00  0.4000E-02  0.4000E-02
     -2.018  0.0000E+00  0.0000E+00  0.4000E-02  0.4000E-02
     -1.913  0.0000E+00  0.0000E+00  0.4000E-02  0.4000E-02
     -1.808  0.0000E+00  0.0000E+00  0.4000E-02  0.4000E-02
     -1.703  0.0000E+00  0.0000E+00  0.4000E-02  0.4000E-02
     -1.597  0.0000E+00  0.0000E+00  0.4000E-02  0.4000E-02
     -1.492  0.0000E+00  0.0000E+00  0.4000E-02  0.4000E-02
     -1.387  0.0000E+00  0.0000E+00  0.4000E-02  0.4000E-02
     -1.282  0.0000E+00  0.0000E+00  0.4000E-02  0.4000E-02
     -1.176  0.0000E+00  0.0000E+00  0.4000E-02  0.4000E-02
     -1.071  0.0000E+00  0.0000E+00  0.4000E-02  0.4000E-02
     -0.966  0.0000E+00  0.0000E+00  0.4000E-02  0.4000E-02
     -0.861  0.0000E+00  0.0000E+00  0.4000E-02  0.4000E-02
     -0.755  0.0000E+00  0.1828E-09  0.4000E-02  0.4000E-02
     -0.650  0.0000E+00  0.5559E-04  0.4000E-02  0.4006E-02
     -0.545  0.2047E-10  0.6365E-02  0.4000E-02  0.4676E-02
     -0.440  0.1800E-04  0.3079E-02  0.4002E-02  0.5000E-02
     -0.334  0.5042E-02  0.2842E-05  0.4532E-02  0.5000E-02
     -0.229  0.4432E-02  0.6955E-12  0.4999E-02  0.5000E-02
     -0.124  0.1058E-04  0.0000E+00  0.5000E-02  0.5000E-02
     -0.019  0.7557E-11  0.0000E+00  0.5000E-02  0.5000E-02
      0.087  0.0000E+00  0.0000E+00  0.5000E-02  0.5000E-02
      0.192  0.0000E+00  0.0000E+00  0.5000E-02  0.5000E-02
      0.297  0.0000E+00  0.0000E+00  0.5000E-02  0.5000E-02
      0.402  0.0000E+00  0.0000E+00  0.5000E-02  0.5000E-02
      0.508  0.0000E+00  0.0000E+00  0.5000E-02  0.5000E-02
      0.613  0.0000E+00  0.0000E+00  0.5000E-02  0.5000E-02
      0.718  0.0000E+00  0.0000E+00  0.5000E-02  0.5000E-02
      0.823  0.0000E+00  0.0000E+00  0.5000E-02  0.5000E-02
      0.929  0.0000E+00  0.0000E+00  0.5000E-02  0.5000E-02
      1.034  0.0000E+00  0.0000E+00  0.5000E-02  0.5000E-02
      1.139  0.0000E+00  0.0000E+00  0.5000E-02  0.5000E-02
      1.244  0.0000E+00  0.1050E-10  0.5000E-02  0.5000E-02
      1.349  0.0000E+00  0.1263E-04  0.5000E-02  0.5001E-02
      1.455  0.3526E-14  0.4632E-02  0.5000E-02  0.5489E-02
      1.560  0.1298E-06  0.5185E-02  0.5000E-02  0.6034E-02
      1.665  0.1072E-02  0.8041E-02  0.5113E-02  0.6881E-02
      1.770  0.1259E-01  0.1134E-02  0.6438E-02  0.7000E-02
      1.876  0.5321E-02  0.1545E-06  0.6998E-02  0.7000E-02
      1.981  0.1661E-04  0.4707E-14  0.7000E-02  0.7000E-02
      2.086  0.1757E-10  0.0000E+00  0.7000E-02  0.7000E-02
      2.191  0.0000E+00  0.0000E+00  0.7000E-02  0.7000E-02
      2.297  0.0000E+00  0.0000E+00  0.7000E-02  0.7000E-02
      2.402  0.0000E+00  0.0000E+00  0.7000E-02  0.7000E-02
      2.507  0.0000E+00  0.1582E-17  0.7000E-02  0.7000E-02
      2.612  0.0000E+00  0.9276E-09  0.7000E-02  0.7000E-02
      2.718  0.0000E+00  0.1232E-03  0.7000E-02  0.7013E-02
      2.823  0.0000E+00  0.7224E-02  0.7000E-02  0.7773E-02
      2.928  0.0000E+00  0.2636E-02  0.7000E-02  0.8051E-02
      3.033  0.8216E-11  0.8167E-02  0.7000E-02  0.8910E-02
      3.139  0.1107E-04  0.4168E-02  0.7001E-02  0.9349E-02
      3.244  0.4571E-02  0.6644E-02  0.7482E-02  0.1005E-01
      3.349  0.1288E-01  0.8245E-02  0.8837E-02  0.1092E-01
      3.454  0.1850E-01  0.6323E-02  0.1078E-01  0.1158E-01
      3.560  0.2050E-02  0.3971E-02  0.1100E-01  0.1200E-01
      3.665  0.1326E-02  0.6944E-05  0.1114E-01  0.1200E-01
      3.770  0.7900E-02  0.3480E-11  0.1197E-01  0.1200E-01
      3.875  0.2765E-03  0.0000E+00  0.1200E-01  0.1200E-01
      3.981  0.5276E-08  0.0000E+00  0.1200E-01  0.1200E-01
      4.086  0.2004E-16  0.0000E+00  0.1200E-01  0.1200E-01
      4.191  0.0000E+00  0.0000E+00  0.1200E-01  0.1200E-01
      4.296  0.0000E+00  0.0000E+00  0.1200E-01  0.1200E-01
      4.402  0.0000E+00  0.0000E+00  0.1200E-01  0.1200E-01
      4.507  0.0000E+00  0.0000E+00  0.1200E-01  0.1200E-01
      4.612  0.0000E+00  0.0000E+00  0.1200E-01  0.1200E-01
      4.717  0.0000E+00  0.0000E+00  0.1200E-01  0.1200E-01
      4.822  0.0000E+00  0.0000E+00  0.1200E-01  0.1200E-01
      4.928  0.0000E+00  0.0000E+00  0.1200E-01  0.1200E-01
      5.033  0.0000E+00  0.0000E+00  0.1200E-01  0.1200E-01
      5.138  0.0000E+00  0.0000E+00  0.1200E-01  0.1200E-01
