   1   1   0   0
  0.2700000E+05  0.3000000E-08  0.3000000E-08  0.3000000E-08  0.5000000E-15
  1.000000000000000E-004
  CAR 
 Co–organic framework                  
      1.45308796    -25.16870090  301     -9.00907799      1.00000000
    -25.169  0.0000E+00  0.0000E+00  0.0000E+00  0.0000E+00
    -25.080  0.0000E+00  0.0000E+00  0.0000E+00  0.0000E+00
    -24.991  0.0000E+00  0.0000E+00  0.0000E+00  0.0000E+00
    -24.902  0.0000E+00  0.0000E+00  0.0000E+00  0.0000E+00
    -24.814  0.0000E+00  0.0000E+00  0.0000E+00  0.0000E+00
    -24.725  0.0000E+00  0.0000E+00  0.0000E+00  0.0000E+00
    -24.636  0.0000E+00  0.0000E+00  0.0000E+00  0.0000E+00
    -24.548  0.0000E+00  0.0000E+00  0.0000E+00  0.0000E+00
    -24.459  0.0000E+00  0.0000E+00  0.0000E+00  0.0000E+00
    -24.370  0.0000E+00  0.0000E+00  0.0000E+00  0.0000E+00
    -24.281  0.0000E+00  0.0000E+00  0.0000E+00  0.0000E+00
    -24.193  0.2064E-12  0.2064E-12  0.1831E-13  0.1832E-13
    -24.104  0.2257E-06  0.2257E-06  0.2003E-07  0.2003E-07
    -24.015  0.6207E-03  0.6208E-03  0.5510E-04  0.5511E-04
    -23.926  0.8612E-02  0.8612E-02  0.8193E-03  0.8193E-03
    -23.838  0.2033E-02  0.2033E-02  0.9997E-03  0.9997E-03
    -23.749  0.3495E-05  0.3494E-05  0.1000E-02  0.1000E-02
    -23.660  0.1681E-10  0.1681E-10  0.1000E-02  0.1000E-02
    -23.571  0.0000E+00  0.0000E+00  0.1000E-02  0.1000E-02
    -23.483  0.0000E+00  0.0000E+00  0.1000E-02  0.1000E-02
    -23.394  0.0000E+00  0.0000E+00  0.1000E-02  0.1000E-02
    -23.305  0.0000E+00  0.0000E+00  0.1000E-02  0.1000E-02
    -23.216  0.0000E+00  0.0000E+00  0.1000E-02  0.1000E-02
    -23.128  0.0000E+00  0.0000E+00  0.1000E-02  0.1000E-02
    -23.039  0.0000E+00  0.0000E+00  0.1000E-02  0.1000E-02
    -22.950  0.0000E+00  0.0000E+00  0.1000E-02  0.1000E-02
    -22.861  0.0000E+00  0.0000E+00  0.1000E-02  0.1000E-02
    -22.773  0.0000E+00  0.0000E+00  0.1000E-02  0.1000E-02
    -22.684  0.0000E+00  0.0000E+00  0.1000E-02  0.1000E-02
    -22.595  0.0000E+00  0.0000E+00  0.1000E-02  0.1000E-02
    -22.507  0.0000E+00  0.0000E+00  0.1000E-02  0.1000E-02
    -22.418  0.0000E+00  0.0000E+00  0.1000E-02  0.1000E-02
    -22.329  0.0000E+00  0.0000E+00  0.1000E-02  0.1000E-02
    -22.240  0.0000E+00  0.0000E+00  0.1000E-02  0.1000E-02
    -22.152  0.0000E+00  0.0000E+00  0.1000E-02  0.1000E-02
    -22.063  0.0000E+00  0.0000E+00  0.1000E-02  0.1000E-02
    -21.974  0.0000E+00  0.0000E+00  0.1000E-02  0.1000E-02
    -21.885  0.0000E+00  0.0000E+00  0.1000E-02  0.1000E-02
    -21.797  0.0000E+00  0.0000E+00  0.1000E-02  0.1000E-02
    -21.708  0.0000E+00  0.0000E+00  0.1000E-02  0.1000E-02
    -21.619  0.0000E+00  0.0000E+00  0.1000E-02  0.1000E-02
    -21.530  0.0000E+00  0.0000E+00  0.1000E-02  0.1000E-02
    -21.442  0.0000E+00  0.0000E+00  0.1000E-02  0.1000E-02
    -21.353  0.0000E+00  0.0000E+00  0.1000E-02  0.1000E-02
    -21.264  0.0000E+00  0.0000E+00  0.1000E-02  0.1000E-02
    -21.175  0.0000E+00  0.0000E+00  0.1000E-02  0.1000E-02
    -21.087  0.0000E+00  0.0000E+00  0.1000E-02  0.1000E-02
    -20.998  0.0000E+00  0.0000E+00  0.1000E-02  0.1000E-02
    -20.909  0.0000E+00  0.0000E+00  0.1000E-02  0.1000E-02
    -20.820  0.0000E+00  0.0000E+00  0.1000E-02  0.1000E-02
    -20.732  0.0000E+00  0.0000E+00  0.1000E-02  0.1000E-02
    -20.643  0.0000E+00  0.0000E+00  0.1000E-02  0.1000E-02
    -20.554  0.0000E+00  0.0000E+00  0.1000E-02  0.1000E-02
    -20.466  0.0000E+00  0.0000E+00  0.1000E-02  0.1000E-02
    -20.377  0.0000E+00  0.0000E+00  0.1000E-02  0.1000E-02
    -20.288  0.0000E+00  0.0000E+00  0.1000E-02  0.1000E-02
    -20.199  0.0000E+00  0.0000E+00  0.1000E-02  0.1000E-02
    -20.111  0.0000E+00  0.0000E+00  0.1000E-02  0.1000E-02
    -20.022  0.0000E+00  0.0000E+00  0.1000E-02  0.1000E-02
    -19.933  0.0000E+00  0.0000E+00  0.1000E-02  0.1000E-02
    -19.844  0.0000E+00  0.0000E+00  0.1000E-02  0.1000E-02
    -19.756  0.0000E+00  0.0000E+00  0.1000E-02  0.1000E-02
    -19.667  0.0000E+00  0.0000E+00  0.1000E-02  0.1000E-02
    -19.578  0.0000E+00  0.0000E+00  0.1000E-02  0.1000E-02
    -19.489  0.0000E+00  0.0000E+00  0.1000E-02  0.1000E-02
    -19.401  0.0000E+00  0.0000E+00  0.1000E-02  0.1000E-02
    -19.312  0.0000E+00  0.0000E+00  0.1000E-02  0.1000E-02
    -19.223  0.0000E+00  0.0000E+00  0.1000E-02  0.1000E-02
    -19.134  0.0000E+00  0.0000E+00  0.1000E-02  0.1000E-02
    -19.046  0.0000E+00  0.0000E+00  0.1000E-02  0.1000E-02
    -18.957  0.0000E+00  0.0000E+00  0.1000E-02  0.1000E-02
    -18.868  0.0000E+00  0.0000E+00  0.1000E-02  0.1000E-02
    -18.779  0.0000E+00  0.0000E+00  0.1000E-02  0.1000E-02
    -18.691  0.0000E+00  0.0000E+00  0.1000E-02  0.1000E-02
    -18.602  0.0000E+00  0.0000E+00  0.1000E-02  0.1000E-02
    -18.513  0.0000E+00  0.0000E+00  0.1000E-02  0.1000E-02
    -18.425  0.0000E+00  0.0000E+00  0.1000E-02  0.1000E-02
    -18.336  0.0000E+00  0.0000E+00  0.1000E-02  0.1000E-02
    -18.247  0.0000E+00  0.0000E+00  0.1000E-02  0.1000E-02
    -18.158  0.0000E+00  0.0000E+00  0.1000E-02  0.1000E-02
    -18.070  0.0000E+00  0.0000E+00  0.1000E-02  0.1000E-02
    -17.981  0.0000E+00  0.0000E+00  0.1000E-02  0.1000E-02
    -17.892  0.0000E+00  0.0000E+00  0.1000E-02  0.1000E-02
    -17.803  0.0000E+00  0.0000E+00  0.1000E-02  0.1000E-02
    -17.715  0.0000E+00  0.0000E+00  0.1000E-02  0.1000E-02
    -17.626  0.0000E+00  0.0000E+00  0.1000E-02  0.1000E-02
    -17.537  0.0000E+00  0.0000E+00  0.1000E-02  0.1000E-02
    -17.448  0.0000E+00  0.0000E+00  0.1000E-02  0.1000E-02
    -17.360  0.0000E+00  0.0000E+00  0.1000E-02  0.1000E-02
    -17.271  0.0000E+00  0.0000E+00  0.1000E-02  0.1000E-02
    -17.182  0.0000E+00  0.0000E+00  0.1000E-02  0.1000E-02
    -17.093  0.0000E+00  0.0000E+00  0.1000E-02  0.1000E-02
    -17.005  0.0000E+00  0.0000E+00  0.1000E-02  0.1000E-02
    -16.916  0.0000E+00  0.0000E+00  0.1000E-02  0.1000E-02
    -16.827  0.0000E+00  0.0000E+00  0.1000E-02  0.1000E-02
    -16.738  0.0000E+00  0.0000E+00  0.1000E-02  0.1000E-02
    -16.650  0.0000E+00  0.0000E+00  0.1000E-02  0.1000E-02
    -16.561  0.0000E+00  0.0000E+00  0.1000E-02  0.1000E-02
    -16.472  0.0000E+00  0.0000E+00  0.1000E-02  0.1000E-02
    -16.384  0.0000E+00  0.0000E+00  0.1000E-02  0.1000E-02
    -16.295  0.0000E+00  0.0000E+00  0.1000E-02  0.1000E-02
    -16.206  0.0000E+00  0.0000E+00  0.1000E-02  0.1000E-02
    -16.117  0.0000E+00  0.0000E+00  0.1000E-02  0.1000E-02
    -16.029  0.0000E+00  0.0000E+00  0.1000E-02  0.1000E-02
    -15.940  0.0000E+00  0.0000E+00  0.1000E-02  0.1000E-02
    -15.851  0.0000E+00  0.0000E+00  0.1000E-02  0.1000E-02
    -15.762  0.0000E+00  0.0000E+00  0.1000E-02  0.1000E-02
    -15.674  0.0000E+00  0.0000E+00  0.1000E-02  0.1000E-02
    -15.585  0.0000E+00  0.0000E+00  0.1000E-02  0.1000E-02
    -15.496  0.0000E+00  0.0000E+00  0.1000E-02  0.1000E-02
    -15.407  0.0000E+00  0.0000E+00  0.1000E-02  0.1000E-02
    -15.319  0.0000E+00  0.0000E+00  0.1000E-02  0.1000E-02
    -15.230  0.0000E+00  0.0000E+00  0.1000E-02  0.1000E-02
    -15.141  0.0000E+00  0.0000E+00  0.1000E-02  0.1000E-02
    -15.052  0.0000E+00  0.0000E+00  0.1000E-02  0.1000E-02
    -14.964  0.0000E+00  0.0000E+00  0.1000E-02  0.1000E-02
    -14.875  0.0000E+00  0.0000E+00  0.1000E-02  0.1000E-02
    -14.786  0.0000E+00  0.0000E+00  0.1000E-02  0.1000E-02
    -14.697  0.0000E+00  0.0000E+00  0.1000E-02  0.1000E-02
    -14.609  0.0000E+00  0.0000E+00  0.1000E-02  0.1000E-02
    -14.520  0.0000E+00  0.0000E+00  0.1000E-02  0.1000E-02
    -14.431  0.0000E+00  0.0000E+00  0.1000E-02  0.1000E-02
    -14.343  0.0000E+00  0.0000E+00  0.1000E-02  0.1000E-02
    -14.254  0.0000E+00  0.0000E+00  0.1000E-02  0.1000E-02
    -14.165  0.0000E+00  0.0000E+00  0.1000E-02  0.1000E-02
    -14.076  0.0000E+00  0.0000E+00  0.1000E-02  0.1000E-02
    -13.988  0.0000E+00  0.0000E+00  0.1000E-02  0.1000E-02
    -13.899  0.0000E+00  0.0000E+00  0.1000E-02  0.1000E-02
    -13.810  0.0000E+00  0.0000E+00  0.1000E-02  0.1000E-02
    -13.721  0.0000E+00  0.0000E+00  0.1000E-02  0.1000E-02
    -13.633  0.0000E+00  0.0000E+00  0.1000E-02  0.1000E-02
    -13.544  0.0000E+00  0.0000E+00  0.1000E-02  0.1000E-02
    -13.455  0.0000E+00  0.0000E+00  0.1000E-02  0.1000E-02
    -13.366  0.0000E+00  0.0000E+00  0.1000E-02  0.1000E-02
    -13.278  0.0000E+00  0.0000E+00  0.1000E-02  0.1000E-02
    -13.189  0.0000E+00  0.0000E+00  0.1000E-02  0.1000E-02
    -13.100  0.0000E+00  0.0000E+00  0.1000E-02  0.1000E-02
    -13.011  0.0000E+00  0.0000E+00  0.1000E-02  0.1000E-02
    -12.923  0.0000E+00  0.0000E+00  0.1000E-02  0.1000E-02
    -12.834  0.0000E+00  0.0000E+00  0.1000E-02  0.1000E-02
    -12.745  0.0000E+00  0.0000E+00  0.1000E-02  0.1000E-02
    -12.656  0.0000E+00  0.0000E+00  0.1000E-02  0.1000E-02
    -12.568  0.0000E+00  0.0000E+00  0.1000E-02  0.1000E-02
    -12.479  0.0000E+00  0.0000E+00  0.1000E-02  0.1000E-02
    -12.390  0.0000E+00  0.0000E+00  0.1000E-02  0.1000E-02
    -12.302  0.0000E+00  0.0000E+00  0.1000E-02  0.1000E-02
    -12.213  0.0000E+00  0.0000E+00  0.1000E-02  0.1000E-02
    -12.124  0.0000E+00  0.0000E+00  0.1000E-02  0.1000E-02
    -12.035  0.0000E+00  0.0000E+00  0.1000E-02  0.1000E-02
    -11.947  0.0000E+00  0.0000E+00  0.1000E-02  0.1000E-02
    -11.858  0.0000E+00  0.0000E+00  0.1000E-02  0.1000E-02
    -11.769  0.0000E+00  0.0000E+00  0.1000E-02  0.1000E-02
    -11.680  0.0000E+00  0.0000E+00  0.1000E-02  0.1000E-02
    -11.592  0.0000E+00  0.0000E+00  0.1000E-02  0.1000E-02
    -11.503  0.0000E+00  0.0000E+00  0.1000E-02  0.1000E-02
    -11.414  0.0000E+00  0.0000E+00  0.1000E-02  0.1000E-02
    -11.325  0.0000E+00  0.0000E+00  0.1000E-02  0.1000E-02
    -11.237  0.0000E+00  0.0000E+00  0.1000E-02  0.1000E-02
    -11.148  0.0000E+00  0.0000E+00  0.1000E-02  0.1000E-02
    -11.059  0.0000E+00  0.0000E+00  0.1000E-02  0.1000E-02
    -10.970  0.0000E+00  0.0000E+00  0.1000E-02  0.1000E-02
    -10.882  0.0000E+00  0.0000E+00  0.1000E-02  0.1000E-02
    -10.793  0.0000E+00  0.0000E+00  0.1000E-02  0.1000E-02
    -10.704  0.0000E+00  0.0000E+00  0.1000E-02  0.1000E-02
    -10.615  0.0000E+00  0.0000E+00  0.1000E-02  0.1000E-02
    -10.527  0.0000E+00  0.0000E+00  0.1000E-02  0.1000E-02
    -10.438  0.0000E+00  0.0000E+00  0.1000E-02  0.1000E-02
    -10.349  0.0000E+00  0.0000E+00  0.1000E-02  0.1000E-02
    -10.260  0.0000E+00  0.0000E+00  0.1000E-02  0.1000E-02
    -10.172  0.0000E+00  0.0000E+00  0.1000E-02  0.1000E-02
    -10.083  0.0000E+00  0.0000E+00  0.1000E-02  0.1000E-02
     -9.994  0.0000E+00  0.0000E+00  0.1000E-02  0.1000E-02
     -9.906  0.0000E+00  0.0000E+00  0.1000E-02  0.1000E-02
     -9.817  0.0000E+00  0.0000E+00  0.1000E-02  0.1000E-02
     -9.728  0.0000E+00  0.0000E+00  0.1000E-02  0.1000E-02
     -9.639  0.0000E+00  0.0000E+00  0.1000E-02  0.1000E-02
     -9.551  0.0000E+00  0.0000E+00  0.1000E-02  0.1000E-02
     -9.462  0.0000E+00  0.0000E+00  0.1000E-02  0.1000E-02
     -9.373  0.0000E+00  0.0000E+00  0.1000E-02  0.1000E-02
     -9.284  0.3215E-14  0.3210E-14  0.1000E-02  0.1000E-02
     -9.196  0.2134E-07  0.2132E-07  0.1000E-02  0.1000E-02
     -9.107  0.3297E-03  0.3296E-03  0.1029E-02  0.1029E-02
     -9.018  0.1891E-01  0.1891E-01  0.2707E-02  0.2707E-02
     -8.929  0.1444E-01  0.1444E-01  0.3989E-02  0.3989E-02
     -8.841  0.1229E-03  0.1230E-03  0.4000E-02  0.4000E-02
     -8.752  0.3477E-08  0.3480E-08  0.4000E-02  0.4000E-02
     -8.663  0.2239E-15  0.2252E-15  0.4000E-02  0.4000E-02
     -8.574  0.0000E+00  0.0000E+00  0.4000E-02  0.4000E-02
     -8.486  0.0000E+00  0.0000E+00  0.4000E-02  0.4000E-02
     -8.397  0.0000E+00  0.0000E+00  0.4000E-02  0.4000E-02
     -8.308  0.0000E+00  0.0000E+00  0.4000E-02  0.4000E-02
     -8.219  0.0000E+00  0.0000E+00  0.4000E-02  0.4000E-02
     -8.131  0.0000E+00  0.0000E+00  0.4000E-02  0.4000E-02
     -8.042  0.0000E+00  0.0000E+00  0.4000E-02  0.4000E-02
     -7.953  0.0000E+00  0.0000E+00  0.4000E-02  0.4000E-02
     -7.865  0.0000E+00  0.0000E+00  0.4000E-02  0.4000E-02
     -7.776  0.0000E+00  0.0000E+00  0.4000E-02  0.4000E-02
     -7.687  0.0000E+00  0.0000E+00  0.4000E-02  0.4000E-02
     -7.598  0.0000E+00  0.0000E+00  0.4000E-02  0.4000E-02
     -7.510  0.0000E+00  0.0000E+00  0.4000E-02  0.4000E-02
     -7.421  0.0000E+00  0.0000E+00  0.4000E-02  0.4000E-02
     -7.332  0.0000E+00  0.0000E+00  0.4000E-02  0.4000E-02
     -7.243  0.0000E+00  0.0000E+00  0.4000E-02  0.4000E-02
     -7.155  0.0000E+00  0.0000E+00  0.4000E-02  0.4000E-02
     -7.066  0.0000E+00  0.0000E+00  0.4000E-02  0.4000E-02
     -6.977  0.0000E+00  0.0000E+00  0.4000E-02  0.4000E-02
     -6.888  0.0000E+00  0.0000E+00  0.4000E-02  0.4000E-02
     -6.800  0.0000E+00  0.0000E+00  0.4000E-02  0.4000E-02
     -6.711  0.0000E+00  0.0000E+00  0.4000E-02  0.4000E-02
     -6.622  0.0000E+00  0.0000E+00  0.4000E-02  0.4000E-02
     -6.533  0.0000E+00  0.0000E+00  0.4000E-02  0.4000E-02
     -6.445  0.0000E+00  0.0000E+00  0.4000E-02  0.4000E-02
     -6.356  0.0000E+00  0.0000E+00  0.4000E-02  0.4000E-02
     -6.267  0.0000E+00  0.0000E+00  0.4000E-02  0.4000E-02
     -6.178  0.0000E+00  0.0000E+00  0.4000E-02  0.4000E-02
     -6.090  0.0000E+00  0.0000E+00  0.4000E-02  0.4000E-02
     -6.001  0.0000E+00  0.0000E+00  0.4000E-02  0.4000E-02
     -5.912  0.0000E+00  0.0000E+00  0.4000E-02  0.4000E-02
     -5.824  0.0000E+00  0.0000E+00  0.4000E-02  0.4000E-02
     -5.735  0.0000E+00  0.0000E+00  0.4000E-02  0.4000E-02
     -5.646  0.0000E+00  0.0000E+00  0.4000E-02  0.4000E-02
     -5.557  0.0000E+00  0.0000E+00  0.4000E-02  0.4000E-02
     -5.469  0.0000E+00  0.0000E+00  0.4000E-02  0.4000E-02
     -5.380  0.0000E+00  0.0000E+00  0.4000E-02  0.4000E-02
     -5.291  0.0000E+00  0.0000E+00  0.4000E-02  0.4000E-02
     -5.202  0.0000E+00  0.0000E+00  0.4000E-02  0.4000E-02
     -5.114  0.0000E+00  0.0000E+00  0.4000E-02  0.4000E-02
     -5.025  0.0000E+00  0.0000E+00  0.4000E-02  0.4000E-02
     -4.936  0.0000E+00  0.0000E+00  0.4000E-02  0.4000E-02
     -4.847  0.0000E+00  0.0000E+00  0.4000E-02  0.4000E-02
     -4.759  0.0000E+00  0.0000E+00  0.4000E-02  0.4000E-02
     -4.670  0.0000E+00  0.0000E+00  0.4000E-02  0.4000E-02
     -4.581  0.0000E+00  0.0000E+00  0.4000E-02  0.4000E-02
     -4.492  0.0000E+00  0.0000E+00  0.4000E-02  0.4000E-02
     -4.404  0.0000E+00  0.0000E+00  0.4000E-02  0.4000E-02
     -4.315  0.0000E+00  0.0000E+00  0.4000E-02  0.4000E-02
     -4.226  0.0000E+00  0.0000E+00  0.4000E-02  0.4000E-02
     -4.137  0.0000E+00  0.0000E+00  0.4000E-02  0.4000E-02
     -4.049  0.0000E+00  0.0000E+00  0.4000E-02  0.4000E-02
     -3.960  0.0000E+00  0.0000E+00  0.4000E-02  0.4000E-02
     -3.871  0.0000E+00  0.0000E+00  0.4000E-02  0.4000E-02
     -3.783  0.0000E+00  0.0000E+00  0.4000E-02  0.4000E-02
     -3.694  0.0000E+00  0.0000E+00  0.4000E-02  0.4000E-02
     -3.605  0.0000E+00  0.0000E+00  0.4000E-02  0.4000E-02
     -3.516  0.0000E+00  0.0000E+00  0.4000E-02  0.4000E-02
     -3.428  0.0000E+00  0.0000E+00  0.4000E-02  0.4000E-02
     -3.339  0.0000E+00  0.0000E+00  0.4000E-02  0.4000E-02
     -3.250  0.0000E+00  0.0000E+00  0.4000E-02  0.4000E-02
     -3.161  0.0000E+00  0.0000E+00  0.4000E-02  0.4000E-02
     -3.073  0.0000E+00  0.0000E+00  0.4000E-02  0.4000E-02
     -2.984  0.0000E+00  0.0000E+00  0.4000E-02  0.4000E-02
     -2.895  0.0000E+00  0.0000E+00  0.4000E-02  0.4000E-02
     -2.806  0.0000E+00  0.0000E+00  0.4000E-02  0.4000E-02
     -2.718  0.0000E+00  0.0000E+00  0.4000E-02  0.4000E-02
     -2.629  0.0000E+00  0.0000E+00  0.4000E-02  0.4000E-02
     -2.540  0.0000E+00  0.0000E+00  0.4000E-02  0.4000E-02
     -2.451  0.0000E+00  0.0000E+00  0.4000E-02  0.4000E-02
     -2.363  0.0000E+00  0.0000E+00  0.4000E-02  0.4000E-02
     -2.274  0.0000E+00  0.0000E+00  0.4000E-02  0.4000E-02
     -2.185  0.0000E+00  0.0000E+00  0.4000E-02  0.4000E-02
     -2.096  0.0000E+00  0.0000E+00  0.4000E-02  0.4000E-02
     -2.008  0.0000E+00  0.0000E+00  0.4000E-02  0.4000E-02
     -1.919  0.0000E+00  0.0000E+00  0.4000E-02  0.4000E-02
     -1.830  0.0000E+00  0.0000E+00  0.4000E-02  0.4000E-02
     -1.742  0.0000E+00  0.0000E+00  0.4000E-02  0.4000E-02
     -1.653  0.0000E+00  0.0000E+00  0.4000E-02  0.4000E-02
     -1.564  0.0000E+00  0.0000E+00  0.4000E-02  0.4000E-02
     -1.475  0.0000E+00  0.0000E+00  0.4000E-02  0.4000E-02
     -1.387  0.0000E+00  0.0000E+00  0.4000E-02  0.4000E-02
     -1.298  0.0000E+00  0.0000E+00  0.4000E-02  0.4000E-02
     -1.209  0.0000E+00  0.0000E+00  0.4000E-02  0.4000E-02
     -1.120  0.0000E+00  0.0000E+00  0.4000E-02  0.4000E-02
     -1.032  0.0000E+00  0.0000E+00  0.4000E-02  0.4000E-02
     -0.943  0.0000E+00  0.0000E+00  0.4000E-02  0.4000E-02
     -0.854  0.0000E+00  0.0000E+00  0.4000E-02  0.4000E-02
     -0.765  0.0000E+00  0.0000E+00  0.4000E-02  0.4000E-02
     -0.677  0.0000E+00  0.0000E+00  0.4000E-02  0.4000E-02
     -0.588  0.0000E+00  0.0000E+00  0.4000E-02  0.4000E-02
     -0.499  0.0000E+00  0.0000E+00  0.4000E-02  0.4000E-02
     -0.410  0.1530E-10  0.6461E-14  0.4000E-02  0.4000E-02
     -0.322  0.3301E-05  0.2361E-07  0.4000E-02  0.4000E-02
     -0.233  0.1988E-02  0.2054E-03  0.4177E-02  0.4018E-02
     -0.144  0.8637E-02  0.7256E-02  0.4943E-02  0.4662E-02
     -0.055  0.7379E-03  0.3972E-02  0.5009E-02  0.5015E-02
      0.033  0.6132E-02  0.7112E-02  0.5553E-02  0.5646E-02
      0.122  0.1302E-01  0.1032E-01  0.6708E-02  0.6562E-02
      0.211  0.4740E-01  0.4645E-01  0.1091E-01  0.1068E-01
      0.299  0.1206E-01  0.1421E-01  0.1198E-01  0.1194E-01
      0.388  0.1710E-03  0.6251E-03  0.1200E-01  0.1200E-01
      0.477  0.1561E-07  0.2257E-06  0.1200E-01  0.1200E-01
      0.566  0.3461E-14  0.2064E-12  0.1200E-01  0.1200E-01
      0.654  0.0000E+00  0.0000E+00  0.1200E-01  0.1200E-01
      0.743  0.0000E+00  0.0000E+00  0.1200E-01  0.1200E-01
      0.832  0.0000E+00  0.0000E+00  0.1200E-01  0.1200E-01
      0.921  0.0000E+00  0.0000E+00  0.1200E-01  0.1200E-01
      1.009  0.0000E+00  0.0000E+00  0.1200E-01  0.1200E-01
      1.098  0.0000E+00  0.0000E+00  0.1200E-01  0.1200E-01
      1.187  0.0000E+00  0.0000E+00  0.1200E-01  0.1200E-01
      1.276  0.0000E+00  0.0000E+00  0.1200E-01  0.1200E-01
      1.364  0.0000E+00  0.0000E+00  0.1200E-01  0.1200E-01
      1.453  0.0000E+00  0.0000E+00  0.1200E-01  0.1200E-01
