    1    1 1000    2
  0.9831862E+03  0.9813847E-09  0.9813847E-09  0.1269558E-08  0.5000000E-15
  1.000000000000000E-004
  CAR 
 Co–organic framework                  
      6      1     12
 
  0.0000000E+00  0.0000000E+00  0.0000000E+00  0.1000000E+01
    1      -21.330568    -24.999387   1.000000   1.000000
    2       -7.365780    -10.689660   1.000000   1.000000
    3       -6.192878    -10.688627   0.000000   1.000000
    4       -6.192476     -8.580538   0.000000   1.000000
    5       -0.337278     -0.560993   0.000000   0.000000
    6        1.708273      1.455718   0.000000   0.000000
    7        1.772439      1.623546   0.000000   0.000000
    8        3.246247      2.796372   0.000000   0.000000
    9        3.327006      2.985991   0.000000   0.000000
   10        3.398467      3.152328   0.000000   0.000000
   11        3.418952      3.300994   0.000000   0.000000
   12        3.703084      3.447064   0.000000   0.000000
