    1    1 1000    2
  0.2700000E+05  0.3000000E-08  0.3000000E-08  0.3000000E-08  0.5000000E-15
  1.000000000000000E-004
  CAR 
 Co–organic framework                  
      6      1     12
 
  0.0000000E+00  0.0000000E+00  0.0000000E+00  0.1000000E+01
    1      -23.958618    -23.958620   1.000000   1.000000
    2       -9.024320     -9.024311   0.666803   0.666713
    3       -9.024306     -9.024307   0.666665   0.666674
    4       -9.024302     -9.024292   0.666622   0.666522
    5       -0.200145     -0.159003   0.000000   0.000000
    6        0.028668      0.020099   0.000000   0.000000
    7        0.152742      0.160492   0.000000   0.000000
    8        0.153074      0.160942   0.000000   0.000000
    9        0.153280      0.167770   0.000000   0.000000
   10        0.174113      0.168041   0.000000   0.000000
   11        0.174309      0.168188   0.000000   0.000000
   12        0.222494      0.243007   0.000000   0.000000
