       N       E                     dE             d eps       ncg     rms          rms(c)
DAV:   1     0.477797293317E+02    0.47780E+02   -0.13322E+03    60   0.239E+02
DAV:   2     0.322948738296E+01   -0.44550E+02   -0.44549E+02    96   0.561E+01
DAV:   3    -0.132918685492E-01   -0.32428E+01   -0.31994E+01    48   0.247E+01
DAV:   4    -0.871846369537E-01   -0.73893E-01   -0.63976E-01    48   0.540E+00
DAV:   5    -0.893487705213E-01   -0.21641E-02   -0.21600E-02    72   0.672E-01    0.129E+00
RMM:   6    -0.890282727234E-01    0.32050E-03   -0.31986E-04    48   0.107E-01    0.802E-01
RMM:   7    -0.146330853944E+00   -0.57303E-01   -0.58123E-03    54   0.360E-01    0.122E+01
RMM:   8    -0.428385467378E-01    0.10349E+00   -0.56804E-03    51   0.418E-01    0.178E+00
RMM:   9    -0.494222664910E-01   -0.65837E-02   -0.65514E-04    48   0.232E-01    0.195E+00
RMM:  10    -0.308214860719E-01    0.18601E-01   -0.28242E-04    48   0.128E-01    0.139E+00
RMM:  11    -0.629485297010E-01   -0.32127E-01   -0.42927E-04    48   0.187E-01    0.205E+00
RMM:  12    -0.439265692925E-01    0.19022E-01   -0.34377E-04    48   0.176E-01    0.144E+00
RMM:  13    -0.815302399121E-01   -0.37604E-01   -0.86550E-04    48   0.258E-01    0.231E+00
RMM:  14    -0.670358209408E-02    0.74827E-01   -0.19844E-03    48   0.377E-01    0.130E+00
RMM:  15    -0.696441088838E-01   -0.62941E-01   -0.90413E-04    48   0.245E-01    0.906E-01
RMM:  16    -0.834667387962E-01   -0.13823E-01   -0.41828E-04    48   0.186E-01    0.181E+00
RMM:  17    -0.540704385911E-01    0.29396E-01   -0.76639E-04    48   0.267E-01    0.566E-01
RMM:  18    -0.858091432183E-01   -0.31739E-01   -0.81980E-04    48   0.266E-01    0.456E-01
RMM:  19    -0.866256936176E-01   -0.81655E-03   -0.18539E-04    48   0.149E-01    0.527E-01
RMM:  20    -0.842634529021E-01    0.23622E-02   -0.66689E-05    48   0.829E-02    0.668E-01
RMM:  21    -0.848494701814E-01   -0.58602E-03   -0.32568E-05    48   0.552E-02    0.271E-01
RMM:  22    -0.868297768253E-01   -0.19803E-02   -0.41350E-05    48   0.649E-02    0.161E-01
RMM:  23    -0.886096495547E-01   -0.17799E-02   -0.56334E-05    48   0.748E-02    0.104E-01
RMM:  24    -0.892461284426E-01   -0.63648E-03   -0.33536E-05    48   0.595E-02    0.977E-02
RMM:  25    -0.890316259020E-01    0.21450E-03   -0.59126E-06    48   0.266E-02    0.873E-02
RMM:  26    -0.890509186366E-01   -0.19293E-04   -0.26758E-06    45   0.166E-02    0.564E-02
RMM:  27    -0.891901239549E-01   -0.13921E-03   -0.22209E-06    44   0.142E-02    0.232E-02
RMM:  28    -0.893693493563E-01   -0.17923E-03   -0.50929E-06    45   0.215E-02    0.244E-02
RMM:  29    -0.893390259560E-01    0.30323E-04   -0.12570E-06    44   0.129E-02    0.213E-02
RMM:  30    -0.893319763888E-01    0.70496E-05   -0.97428E-08    40   0.391E-03    0.123E-02
RMM:  31    -0.893586338039E-01   -0.26657E-04   -0.12935E-07    40   0.343E-03    0.463E-03
RMM:  32    -0.893823016987E-01   -0.23668E-04   -0.22955E-07    40   0.461E-03    0.203E-03
RMM:  33    -0.893910068312E-01   -0.87051E-05   -0.87319E-08    40   0.286E-03    0.148E-03
RMM:  34    -0.893919040348E-01   -0.89720E-06   -0.21675E-08    39   0.146E-03
   1 F= -.89434637E-01 E0= -.50869057E-01  d E =-.894346E-01  mag=    -0.0000
       N       E                     dE             d eps       ncg     rms          rms(c)
DAV:   1    -0.931199396312E-01   -0.37289E-02   -0.10475E-01    48   0.324E+00    0.416E-01
RMM:   2    -0.899393492512E-01    0.31806E-02   -0.82713E-03    48   0.684E-01    0.230E-01
RMM:   3    -0.911006598798E-01   -0.11613E-02   -0.30845E-03    52   0.332E-01    0.151E+00
RMM:   4    -0.924093576043E-01   -0.13087E-02   -0.96314E-04    48   0.257E-01    0.406E+00
RMM:   5     0.109487683896E+00    0.20190E+00   -0.57981E-03    48   0.565E-01    0.150E+00
RMM:   6    -0.401267758259E-01   -0.14961E+00   -0.16367E-03    48   0.323E-01    0.861E-01
RMM:   7    -0.737877177800E-01   -0.33661E-01   -0.78265E-04    48   0.248E-01    0.558E-01
RMM:   8    -0.823251330672E-01   -0.85374E-02   -0.23865E-04    48   0.142E-01    0.771E-01
RMM:   9    -0.817820177798E-01    0.54312E-03   -0.24291E-04    48   0.151E-01    0.525E-01
RMM:  10    -0.870049331852E-01   -0.52229E-02   -0.18964E-04    48   0.126E-01    0.708E-01
RMM:  11    -0.855475139981E-01    0.14574E-02   -0.21336E-04    48   0.157E-01    0.501E-01
RMM:  12    -0.854749989427E-01    0.72515E-04   -0.61084E-05    48   0.872E-02    0.535E-01
RMM:  13    -0.843166660716E-01    0.11583E-02   -0.13540E-05    48   0.406E-02    0.548E-01
RMM:  14    -0.837467047505E-01    0.56996E-03   -0.44739E-06    48   0.205E-02    0.547E-01
RMM:  15    -0.836695273304E-01    0.77177E-04   -0.38459E-05    48   0.657E-02    0.475E-01
RMM:  16    -0.844630268359E-01   -0.79350E-03   -0.48735E-05    48   0.617E-02    0.531E-01
RMM:  17    -0.867839388520E-01   -0.23209E-02   -0.29883E-04    48   0.204E-01    0.472E-01
RMM:  18    -0.835814948692E-01    0.32024E-02   -0.62157E-05    48   0.818E-02    0.326E-01
RMM:  19    -0.874516081098E-01   -0.38701E-02   -0.11453E-04    48   0.102E-01    0.327E-01
RMM:  20    -0.878870057563E-01   -0.43540E-03   -0.49315E-05    48   0.784E-02    0.268E-01
RMM:  21    -0.881464800991E-01   -0.25947E-03   -0.53643E-06    47   0.195E-02    0.249E-01
RMM:  22    -0.883335172926E-01   -0.18704E-03   -0.15875E-05    48   0.428E-02    0.258E-01
RMM:  23    -0.881622160252E-01    0.17130E-03   -0.59029E-06    47   0.251E-02    0.268E-01
RMM:  24    -0.880707078499E-01    0.91508E-04   -0.39287E-07    40   0.698E-03    0.274E-01
RMM:  25    -0.879519500811E-01    0.11876E-03   -0.11092E-06    42   0.103E-02    0.288E-01
RMM:  26    -0.876738620864E-01    0.27809E-03   -0.36328E-06    46   0.183E-02    0.304E-01
RMM:  27    -0.873716476283E-01    0.30221E-03   -0.19201E-06    43   0.135E-02    0.304E-01
RMM:  28    -0.872694873403E-01    0.10216E-03   -0.50144E-07    41   0.672E-03    0.279E-01
RMM:  29    -0.876000857475E-01   -0.33060E-03   -0.17609E-06    43   0.121E-02    0.238E-01
RMM:  30    -0.882539346453E-01   -0.65385E-03   -0.85716E-06    48   0.272E-02    0.189E-01
RMM:  31    -0.887091745022E-01   -0.45524E-03   -0.81171E-06    48   0.283E-02    0.118E-01
RMM:  32    -0.894776013146E-01   -0.76843E-03   -0.25882E-05    48   0.487E-02    0.519E-02
RMM:  33    -0.897018403408E-01   -0.22424E-03   -0.11613E-05    47   0.311E-02    0.316E-02
RMM:  34    -0.897954414688E-01   -0.93601E-04   -0.17263E-06    44   0.128E-02    0.335E-02
RMM:  35    -0.897766193677E-01    0.18822E-04   -0.11680E-06    44   0.123E-02    0.316E-02
RMM:  36    -0.897542837957E-01    0.22336E-04   -0.22569E-07    40   0.555E-03    0.211E-02
RMM:  37    -0.897879350347E-01   -0.33651E-04   -0.25490E-07    41   0.471E-03    0.783E-03
RMM:  38    -0.898365350344E-01   -0.48600E-04   -0.61952E-07    41   0.690E-03    0.295E-03
RMM:  39    -0.898549498087E-01   -0.18415E-04   -0.26718E-07    40   0.505E-03    0.383E-03
RMM:  40    -0.898544401351E-01    0.50967E-06   -0.25659E-08    39   0.136E-03
   2 F= -.89897907E-01 E0= -.51332345E-01  d E =-.463271E-03  mag=     0.0000
       N       E                     dE             d eps       ncg     rms          rms(c)
DAV:   1    -0.120841903388E+00   -0.30987E-01   -0.95688E-01    48   0.979E+00    0.126E+00
RMM:   2    -0.919595717143E-01    0.28882E-01   -0.76124E-02    48   0.205E+00    0.731E-01
RMM:   3    -0.127998504796E+00   -0.36039E-01   -0.29042E-02    52   0.106E+00    0.654E+00
RMM:   4    -0.182964578221E-01    0.10970E+00   -0.52151E-03    49   0.640E-01    0.781E+00
RMM:   5     0.195258103176E+00    0.21355E+00   -0.87848E-03    48   0.718E-01    0.109E+01
RMM:   6    -0.167325505948E-01   -0.21199E+00   -0.53320E-03    48   0.646E-01    0.713E+00
RMM:   7     0.605301916452E-01    0.77263E-01   -0.13526E-03    48   0.364E-01    0.714E+00
RMM:   8     0.125440684696E+00    0.64910E-01   -0.75424E-04    48   0.241E-01    0.738E+00
RMM:   9     0.151356100281E+00    0.25915E-01   -0.21063E-03    48   0.379E-01    0.763E+00
RMM:  10     0.207755209048E+00    0.56399E-01   -0.58790E-03    48   0.683E-01    0.480E+00
RMM:  11    -0.693915278546E-01   -0.27715E+00   -0.61601E-03    48   0.758E-01    0.617E+00
RMM:  12     0.451378714407E-01    0.11453E+00   -0.34938E-03    48   0.526E-01    0.692E+00
RMM:  13     0.674067596167E-01    0.22269E-01   -0.14268E-03    48   0.371E-01    0.453E+00
RMM:  14     0.203441759381E-01   -0.47063E-01   -0.83710E-04    48   0.246E-01    0.495E+00
RMM:  15     0.125860274779E-01   -0.77581E-02   -0.24944E-03    48   0.384E-01    0.361E+00
RMM:  16    -0.609926493411E-01   -0.73579E-01   -0.47057E-03    48   0.722E-01    0.372E+00
RMM:  17    -0.587355622895E-01    0.22571E-02   -0.17039E-03    48   0.402E-01    0.267E+00
RMM:  18    -0.634064842774E-01   -0.46709E-02   -0.41784E-04    48   0.180E-01    0.163E+00
RMM:  19    -0.751302228137E-01   -0.11724E-01   -0.10814E-03    48   0.357E-01    0.765E-01
RMM:  20    -0.869574356082E-01   -0.11827E-01   -0.50352E-04    48   0.234E-01    0.675E-01
RMM:  21    -0.874152857241E-01   -0.45785E-03   -0.23751E-04    48   0.171E-01    0.257E-01
RMM:  22    -0.904467896373E-01   -0.30315E-02   -0.14495E-04    48   0.126E-01    0.167E-01
RMM:  23    -0.903200792945E-01    0.12671E-03   -0.27375E-05    48   0.576E-02    0.952E-02
RMM:  24    -0.908009491600E-01   -0.48087E-03   -0.20898E-05    48   0.492E-02    0.102E-01
RMM:  25    -0.908976346119E-01   -0.96685E-04   -0.51536E-06    47   0.226E-02    0.683E-02
RMM:  26    -0.908156740717E-01    0.81961E-04   -0.32094E-06    45   0.176E-02    0.399E-02
RMM:  27    -0.909984897355E-01   -0.18282E-03   -0.68688E-06    47   0.257E-02    0.203E-02
RMM:  28    -0.909978358790E-01    0.65386E-06   -0.91291E-07    43   0.117E-02
   3 F= -.91043597E-01 E0= -.52478065E-01  d E =-.160896E-02  mag=     0.0000
       N       E                     dE             d eps       ncg     rms          rms(c)
DAV:   1    -0.217361084977E+00   -0.12636E+00   -0.39598E+00    48   0.199E+01    0.258E+00
RMM:   2    -0.955887569419E-01    0.12177E+00   -0.32618E-01    48   0.421E+00    0.143E+00
RMM:   3    -0.207914142272E+00   -0.11233E+00   -0.14441E-01    54   0.225E+00    0.767E+00
RMM:   4    -0.179359671252E+00    0.28554E-01   -0.88610E-03    48   0.734E-01    0.766E+00
RMM:   5    -0.130071931193E+00    0.49288E-01   -0.25252E-02    48   0.128E+00    0.863E+00
RMM:   6     0.989289020205E-01    0.22900E+00   -0.31744E-02    48   0.160E+00    0.769E+00
RMM:   7     0.606747020390E-01   -0.38254E-01   -0.45699E-02    49   0.175E+00    0.716E+00
RMM:   8    -0.701241042178E-01   -0.13080E+00   -0.10828E-02    48   0.108E+00    0.702E+00
RMM:   9    -0.984729837748E-01   -0.28349E-01   -0.13121E-02    49   0.908E-01    0.797E+00
RMM:  10     0.745595212384E-01    0.17303E+00   -0.81487E-03    48   0.703E-01    0.828E+00
RMM:  11    -0.170741694474E-01   -0.91634E-01   -0.86430E-03    48   0.732E-01    0.800E+00
RMM:  12     0.291010510530E-01    0.46175E-01   -0.25646E-03    48   0.456E-01    0.796E+00
RMM:  13     0.396079050244E-01    0.10507E-01   -0.24998E-03    48   0.412E-01    0.811E+00
RMM:  14     0.398018006310E-01    0.19390E-03   -0.39615E-04    48   0.186E-01    0.813E+00
RMM:  15     0.267660980368E+00    0.22786E+00   -0.21449E-02    48   0.118E+00    0.774E+00
RMM:  16    -0.227255603305E-01   -0.29039E+00   -0.15115E-02    48   0.932E-01    0.808E+00
RMM:  17    -0.680000200168E-01   -0.45274E-01   -0.32546E-03    48   0.461E-01    0.850E+00
RMM:  18    -0.206406328327E+00   -0.13841E+00   -0.15332E-02    48   0.997E-01    0.786E+00
RMM:  19    -0.231416751304E+00   -0.25010E-01   -0.70453E-03    48   0.687E-01    0.805E+00
RMM:  20    -0.163683805971E+00    0.67733E-01   -0.28375E-02    49   0.134E+00    0.107E+01
RMM:  21    -0.127617361675E+00    0.36066E-01   -0.30048E-02    48   0.143E+00    0.106E+01
RMM:  22    -0.182707756167E+00   -0.55090E-01   -0.39861E-03    48   0.623E-01    0.109E+01
RMM:  23    -0.142395920483E+00    0.40312E-01   -0.58683E-04    48   0.175E-01    0.109E+01
RMM:  24    -0.166384392469E+00   -0.23988E-01   -0.22584E-03    48   0.349E-01    0.108E+01
RMM:  25    -0.246293726683E+00   -0.79909E-01   -0.36216E-02    48   0.149E+00    0.858E+00
RMM:  26    -0.324923744352E+00   -0.78630E-01   -0.17895E-02    48   0.120E+00    0.774E+00
RMM:  27    -0.190355366896E+00    0.13457E+00   -0.63093E-03    48   0.674E-01    0.876E+00
RMM:  28    -0.446693644175E+00   -0.25634E+00   -0.19622E-02    48   0.110E+00    0.770E+00
RMM:  29    -0.362396700800E+00    0.84297E-01   -0.57008E-03    48   0.660E-01    0.798E+00
RMM:  30    -0.363804155003E+00   -0.14075E-02   -0.55431E-03    48   0.614E-01    0.586E+00
RMM:  31    -0.305380384448E+00    0.58424E-01   -0.66387E-03    48   0.733E-01    0.549E+00
RMM:  32    -0.434262083952E+00   -0.12888E+00   -0.55396E-03    48   0.659E-01    0.538E+00
RMM:  33    -0.330217269548E+00    0.10404E+00   -0.55812E-03    48   0.640E-01    0.773E+00
RMM:  34    -0.324977130982E+00    0.52401E-02   -0.38599E-03    48   0.583E-01    0.570E+00
RMM:  35    -0.323708217245E+00    0.12689E-02   -0.94797E-04    48   0.304E-01    0.543E+00
RMM:  36    -0.323793180727E+00   -0.84963E-04   -0.83377E-04    48   0.243E-01    0.603E+00
RMM:  37    -0.259461965281E+00    0.64331E-01   -0.33373E-03    48   0.485E-01    0.577E+00
RMM:  38    -0.140329941322E+00    0.11913E+00   -0.86485E-03    48   0.757E-01    0.632E+00
RMM:  39    -0.965599083950E-01    0.43770E-01   -0.10132E-02    48   0.830E-01    0.570E+00
RMM:  40    -0.152708915358E+00   -0.56149E-01   -0.36008E-03    48   0.537E-01    0.551E+00
RMM:  41    -0.113637128592E+00    0.39072E-01   -0.39531E-03    48   0.498E-01    0.668E+00
RMM:  42    -0.832100872630E-01    0.30427E-01   -0.20342E-03    48   0.414E-01    0.704E+00
RMM:  43    -0.666755405268E-01    0.16535E-01   -0.42459E-04    49   0.147E-01    0.700E+00
RMM:  44    -0.626486751718E-01    0.40269E-02   -0.74933E-05    48   0.701E-02    0.677E+00
RMM:  45    -0.522239483548E-01    0.10425E-01   -0.25090E-04    48   0.126E-01    0.670E+00
RMM:  46    -0.348568129087E-01    0.17367E-01   -0.65871E-04    48   0.187E-01    0.671E+00
RMM:  47    -0.228945234940E-01    0.11962E-01   -0.13796E-03    49   0.283E-01    0.654E+00
RMM:  48    -0.170706084010E-01    0.58239E-02   -0.12412E-03    48   0.299E-01    0.552E+00
RMM:  49    -0.403098117240E-01   -0.23239E-01   -0.14992E-03    48   0.346E-01    0.592E+00
RMM:  50    -0.121729073045E+00   -0.81419E-01   -0.31873E-03    48   0.533E-01    0.671E+00
RMM:  51     0.125181605662E+00    0.24691E+00   -0.12160E-02    48   0.902E-01    0.521E+00
RMM:  52    -0.461598202460E-01   -0.17134E+00   -0.64713E-03    48   0.763E-01    0.476E+00
RMM:  53    -0.685561713686E-01   -0.22396E-01   -0.32739E-03    48   0.547E-01    0.536E+00
RMM:  54    -0.157903905920E-01    0.52766E-01   -0.41679E-03    48   0.589E-01    0.702E+00
RMM:  55    -0.431592786025E-01   -0.27369E-01   -0.27191E-03    48   0.504E-01    0.453E+00
RMM:  56     0.209950750664E-01    0.64154E-01   -0.11776E-02    48   0.955E-01    0.741E+00
RMM:  57    -0.842133795203E-02   -0.29416E-01   -0.52378E-03    48   0.746E-01    0.404E+00
RMM:  58     0.592970092799E-02    0.14351E-01   -0.62944E-03    48   0.701E-01    0.719E+00
RMM:  59    -0.243521171764E-01   -0.30282E-01   -0.86180E-03    48   0.971E-01    0.477E+00
RMM:  60    -0.638726983296E-01   -0.39521E-01   -0.32876E-03    48   0.656E-01    0.232E+00
RMM:  61    -0.728289840319E-01   -0.89563E-02   -0.10132E-03    48   0.304E-01    0.139E+00
RMM:  62    -0.852146843583E-01   -0.12386E-01   -0.38325E-04    48   0.185E-01    0.286E+00
RMM:  63    -0.676476189926E-01    0.17567E-01   -0.51071E-04    48   0.216E-01    0.116E+00
RMM:  64    -0.818080121355E-01   -0.14160E-01   -0.39130E-04    48   0.180E-01    0.176E+00
RMM:  65    -0.681399607078E-01    0.13668E-01   -0.13199E-03    48   0.387E-01    0.192E+00
RMM:  66    -0.886571021143E-01   -0.20517E-01   -0.75464E-04    48   0.280E-01    0.135E+00
RMM:  67    -0.776462807769E-01    0.11011E-01   -0.39411E-04    48   0.195E-01    0.143E+00
RMM:  68    -0.888961757024E-01   -0.11250E-01   -0.61951E-04    48   0.286E-01    0.207E-01
RMM:  69    -0.922687182854E-01   -0.33725E-02   -0.13262E-04    48   0.111E-01    0.939E-01
RMM:  70    -0.886055577071E-01    0.36632E-02   -0.17568E-04    48   0.151E-01    0.430E-01
RMM:  71    -0.899226678556E-01   -0.13171E-02   -0.30572E-05    48   0.570E-02    0.139E-01
RMM:  72    -0.924301465888E-01   -0.25075E-02   -0.12414E-04    48   0.117E-01    0.299E-01
RMM:  73    -0.922559755168E-01    0.17417E-03   -0.16444E-05    48   0.434E-02    0.217E-01
RMM:  74    -0.921953591128E-01    0.60616E-04   -0.44826E-06    47   0.235E-02    0.134E-01
RMM:  75    -0.922513479815E-01   -0.55989E-04   -0.39279E-06    47   0.213E-02    0.721E-02
RMM:  76    -0.925029064341E-01   -0.25156E-03   -0.85673E-06    46   0.259E-02    0.615E-02
RMM:  77    -0.926048778035E-01   -0.10197E-03   -0.34027E-06    45   0.169E-02    0.162E-01
RMM:  78    -0.923589547039E-01    0.24592E-03   -0.78518E-06    46   0.249E-02    0.497E-02
RMM:  79    -0.925854900928E-01   -0.22654E-03   -0.62117E-06    45   0.213E-02    0.505E-02
RMM:  80    -0.926045934161E-01   -0.19103E-04   -0.49542E-06    44   0.219E-02    0.146E-02
RMM:  81    -0.926395352015E-01   -0.34942E-04   -0.60112E-07    41   0.862E-03    0.336E-02
RMM:  82    -0.926234136174E-01    0.16122E-04   -0.43106E-07    41   0.704E-03    0.234E-02
RMM:  83    -0.926246553366E-01   -0.12417E-05   -0.31906E-08    40   0.195E-03    0.995E-03
RMM:  84    -0.926388695613E-01   -0.14214E-04   -0.17190E-07    40   0.368E-03    0.170E-02
RMM:  85    -0.926363804055E-01    0.24892E-05   -0.29872E-07    40   0.573E-03    0.912E-03
RMM:  86    -0.926388163163E-01   -0.24359E-05   -0.86995E-09    39   0.972E-04    0.251E-03
RMM:  87    -0.926449183330E-01   -0.61020E-05   -0.45059E-08    40   0.203E-03    0.169E-03
RMM:  88    -0.926455905594E-01   -0.67223E-06   -0.14843E-08    40   0.143E-03
   4 F= -.92696370E-01 E0= -.54130791E-01  d E =-.326173E-02  mag=    -0.0000
       N       E                     dE             d eps       ncg     rms          rms(c)
DAV:   1    -0.638730430659E+00   -0.54609E+00   -0.16947E+01    48   0.410E+01    0.542E+00
RMM:   2    -0.974625216817E-01    0.54127E+00   -0.14637E+00    48   0.910E+00    0.258E+00
RMM:   3    -0.214981240231E+00   -0.11752E+00   -0.69464E-01    54   0.461E+00    0.102E+01
RMM:   4    -0.181752384808E-01    0.19681E+00   -0.24130E-02    52   0.980E-01    0.502E+00
RMM:   5    -0.321814523929E-01   -0.14006E-01   -0.34946E-03    48   0.571E-01    0.452E+00
RMM:   6    -0.179374438216E-01    0.14244E-01   -0.91665E-04    49   0.280E-01    0.482E+00
RMM:   7    -0.222708420256E-01   -0.43334E-02   -0.35223E-04    48   0.183E-01    0.316E+00
RMM:   8    -0.599380266024E-01   -0.37667E-01   -0.78767E-04    48   0.267E-01    0.481E+00
RMM:   9     0.681915110471E-02    0.66757E-01   -0.19740E-03    48   0.422E-01    0.173E+00
RMM:  10    -0.930355676286E-01   -0.99855E-01   -0.25168E-03    48   0.451E-01    0.282E+00
RMM:  11    -0.789693483666E-01    0.14066E-01   -0.67842E-03    48   0.695E-01    0.192E+00
RMM:  12    -0.897453712548E-01   -0.10776E-01   -0.50853E-03    53   0.479E-01    0.352E+00
RMM:  13    -0.466244007378E-01    0.43121E-01   -0.19261E-03    48   0.421E-01    0.122E+00
RMM:  14    -0.931266961359E-01   -0.46502E-01   -0.22334E-03    48   0.436E-01    0.325E+00
RMM:  15    -0.512835306787E-01    0.41843E-01   -0.13577E-03    48   0.388E-01    0.308E+00
RMM:  16    -0.396959072644E-01    0.11588E-01   -0.86828E-04    48   0.289E-01    0.137E+00
RMM:  17    -0.874034225391E-01   -0.47708E-01   -0.15904E-03    48   0.393E-01    0.925E-01
RMM:  18    -0.911108133477E-01   -0.37074E-02   -0.62370E-04    48   0.273E-01    0.443E-01
RMM:  19    -0.933997116632E-01   -0.22889E-02   -0.14863E-04    48   0.135E-01    0.281E-01
RMM:  20    -0.943484727421E-01   -0.94876E-03   -0.12202E-04    48   0.120E-01    0.176E-01
RMM:  21    -0.944394138613E-01   -0.90941E-04   -0.47735E-05    48   0.656E-02    0.904E-02
RMM:  22    -0.946327711429E-01   -0.19336E-03   -0.18385E-05    48   0.361E-02    0.565E-02
RMM:  23    -0.946087214132E-01    0.24050E-04   -0.34092E-06    46   0.182E-02    0.728E-02
RMM:  24    -0.946437665864E-01   -0.35045E-04   -0.38365E-06    46   0.221E-02    0.507E-02
RMM:  25    -0.946557667461E-01   -0.12000E-04   -0.22306E-06    46   0.157E-02    0.167E-02
RMM:  26    -0.946719880912E-01   -0.16221E-04   -0.72894E-07    41   0.971E-03    0.105E-02
RMM:  27    -0.946752666301E-01   -0.32785E-05   -0.19364E-07    40   0.528E-03    0.583E-03
RMM:  28    -0.946845402860E-01   -0.92737E-05   -0.18684E-07    40   0.419E-03    0.125E-02
RMM:  29    -0.946869182025E-01   -0.23779E-05   -0.17551E-07    40   0.295E-03    0.694E-03
RMM:  30    -0.946903031506E-01   -0.33849E-05   -0.12194E-07    40   0.341E-03    0.154E-03
RMM:  31    -0.946934889528E-01   -0.31858E-05   -0.51734E-08    39   0.199E-03    0.271E-03
RMM:  32    -0.946944206879E-01   -0.93174E-06   -0.38042E-08    39   0.137E-03
   5 F= -.94757297E-01 E0= -.56191719E-01  d E =-.532266E-02  mag=    -0.0000
       N       E                     dE             d eps       ncg     rms          rms(c)
DAV:   1    -0.266083964742E+01   -0.25661E+01   -0.77424E+01    60   0.942E+01    0.120E+01
RMM:   2    -0.117985553437E+00    0.25429E+01   -0.79915E+00    48   0.231E+01    0.120E+01
RMM:   3     0.105679727470E+01    0.11748E+01   -0.87523E+00    51   0.131E+01    0.654E+00
RMM:   4    -0.535238441576E+00   -0.15920E+01   -0.85850E-01    48   0.103E+01    0.414E+00
RMM:   5    -0.125178025819E+01   -0.71654E+00   -0.41768E-01    48   0.348E+00    0.195E+00
RMM:   6    -0.166853339423E+01   -0.41675E+00   -0.17800E-01    49   0.354E+00    0.131E+00
RMM:   7    -0.174115964166E+01   -0.72626E-01   -0.50871E-02    48   0.177E+00    0.682E-01
RMM:   8    -0.185521223593E+01   -0.11405E+00   -0.23535E-02    50   0.738E-01    0.350E-01
RMM:   9    -0.192730313399E+01   -0.72091E-01   -0.62869E-03    51   0.377E-01    0.157E-01
RMM:  10    -0.193396458859E+01   -0.66615E-02   -0.18703E-03    49   0.234E-01    0.866E-02
RMM:  11    -0.193499866513E+01   -0.10341E-02   -0.29527E-04    49   0.157E-01    0.555E-02
RMM:  12    -0.193732697893E+01   -0.23283E-02   -0.31452E-04    48   0.120E-01    0.478E-02
RMM:  13    -0.193732444018E+01    0.25388E-05   -0.12843E-04    48   0.103E-01    0.287E-02
RMM:  14    -0.193746730584E+01   -0.14287E-03   -0.84784E-05    49   0.543E-02    0.123E-02
RMM:  15    -0.193792840941E+01   -0.46110E-03   -0.24204E-05    48   0.352E-02    0.488E-03
RMM:  16    -0.193798090582E+01   -0.52496E-04   -0.48780E-06    47   0.168E-02    0.294E-03
RMM:  17    -0.193800999713E+01   -0.29091E-04   -0.15162E-06    44   0.101E-02    0.228E-03
RMM:  18    -0.193801244607E+01   -0.24489E-05   -0.58754E-07    42   0.692E-03    0.227E-03
RMM:  19    -0.193801345774E+01   -0.10117E-05   -0.14993E-07    40   0.576E-03    0.225E-03
RMM:  20    -0.193801455895E+01   -0.11012E-05   -0.66483E-08    40   0.230E-03    0.272E-03
RMM:  21    -0.193801339901E+01    0.11599E-05   -0.66263E-07    41   0.734E-03    0.153E-03
RMM:  22    -0.193801401914E+01   -0.62012E-06   -0.32051E-06    48   0.150E-02
   6 F= -.19381128E+01 E0= -.19381128E+01  d E =-.184868E+01  mag=    -2.0001
       N       E                     dE             d eps       ncg     rms          rms(c)
DAV:   1    -0.158497886817E+02   -0.13912E+02   -0.39902E+02    48   0.309E+02    0.334E+01
RMM:   2     0.232483494245E+01    0.18175E+02   -0.69248E+01    53   0.890E+01    0.218E+01
RMM:   3    -0.175728707445E+01   -0.40821E+01   -0.89115E+00    52   0.235E+01    0.655E+00
RMM:   4    -0.187795676634E+01   -0.12067E+00   -0.34390E-01    51   0.831E+00    0.446E+00
RMM:   5    -0.193222154729E+01   -0.54265E-01   -0.50199E-02    53   0.335E+00    0.397E+00
RMM:   6    -0.195012290690E+01   -0.17901E-01   -0.22834E-02    52   0.153E+00    0.188E+00
RMM:   7    -0.194576181463E+01    0.43611E-02   -0.17796E-02    53   0.123E+00    0.276E-01
RMM:   8    -0.194677955257E+01   -0.10177E-02   -0.15558E-03    51   0.428E-01    0.215E-01
RMM:   9    -0.194709611443E+01   -0.31656E-03   -0.32059E-04    50   0.292E-01    0.117E-01
RMM:  10    -0.194738928302E+01   -0.29317E-03   -0.59806E-04    50   0.289E-01    0.116E-01
RMM:  11    -0.194781811900E+01   -0.42884E-03   -0.17833E-04    50   0.157E-01    0.704E-02
RMM:  12    -0.194812595717E+01   -0.30784E-03   -0.19434E-04    50   0.182E-01    0.374E-02
RMM:  13    -0.194835112243E+01   -0.22517E-03   -0.14713E-04    51   0.116E-01    0.400E-02
RMM:  14    -0.194845595403E+01   -0.10483E-03   -0.96587E-05    51   0.104E-01    0.312E-02
RMM:  15    -0.194851722456E+01   -0.61271E-04   -0.55820E-05    52   0.815E-02    0.254E-02
RMM:  16    -0.194855400122E+01   -0.36777E-04   -0.39540E-05    49   0.616E-02    0.293E-02
RMM:  17    -0.194857655671E+01   -0.22555E-04   -0.17112E-05    49   0.609E-02    0.270E-02
RMM:  18    -0.194853280835E+01    0.43748E-04   -0.22924E-05    50   0.561E-02    0.304E-02
RMM:  19    -0.194846371247E+01    0.69096E-04   -0.20675E-04    51   0.142E-01    0.325E-02
RMM:  20    -0.194859479419E+01   -0.13108E-03   -0.37550E-04    50   0.200E-01    0.233E-02
RMM:  21    -0.194866526259E+01   -0.70468E-04   -0.20640E-04    50   0.154E-01    0.107E-02
RMM:  22    -0.194868589709E+01   -0.20634E-04   -0.50073E-05    50   0.109E-01    0.493E-03
RMM:  23    -0.194868847279E+01   -0.25757E-05   -0.12605E-05    47   0.360E-02    0.531E-03
RMM:  24    -0.194868897299E+01   -0.50020E-06   -0.22012E-06    44   0.318E-02
   7 F= -.19489634E+01 E0= -.19489634E+01  d E =-.185953E+01  mag=    -2.0000
       N       E                     dE             d eps       ncg     rms          rms(c)
DAV:   1    -0.213516553506E+01   -0.18648E+00   -0.64689E+00    48   0.459E+01    0.418E+00
RMM:   2    -0.193515762943E+01    0.20001E+00   -0.41668E-01    48   0.927E+00    0.174E+00
RMM:   3    -0.194535564134E+01   -0.10198E-01   -0.25781E-01    51   0.558E+00    0.978E-01
RMM:   4    -0.194776963611E+01   -0.24140E-02   -0.18931E-02    50   0.913E-01    0.733E-01
RMM:   5    -0.194872053751E+01   -0.95090E-03   -0.30210E-03    49   0.109E+00    0.265E-01
RMM:   6    -0.194880509999E+01   -0.84562E-04   -0.50815E-04    51   0.340E-01    0.143E-01
RMM:   7    -0.194870921210E+01    0.95888E-04   -0.62514E-04    49   0.364E-01    0.817E-02
RMM:   8    -0.194873085055E+01   -0.21638E-04   -0.29726E-04    53   0.155E-01    0.634E-02
RMM:   9    -0.194874739946E+01   -0.16549E-04   -0.11422E-05    53   0.426E-02    0.423E-02
RMM:  10    -0.194880721147E+01   -0.59812E-04   -0.16767E-05    49   0.579E-02    0.363E-02
RMM:  11    -0.194882539177E+01   -0.18180E-04   -0.16475E-05    52   0.425E-02    0.340E-02
RMM:  12    -0.194883244222E+01   -0.70505E-05   -0.97963E-06    52   0.340E-02    0.357E-02
RMM:  13    -0.194859684656E+01    0.23560E-03   -0.10561E-03    50   0.329E-01    0.352E-02
RMM:  14    -0.194860599378E+01   -0.91472E-05   -0.15450E-04    50   0.138E-01    0.364E-02
RMM:  15    -0.194855473380E+01    0.51260E-04   -0.11080E-04    49   0.117E-01    0.322E-02
RMM:  16    -0.194862066819E+01   -0.65934E-04   -0.90865E-05    51   0.111E-01    0.383E-02
RMM:  17    -0.194869332764E+01   -0.72659E-04   -0.10225E-03    50   0.312E-01    0.389E-02
RMM:  18    -0.194879233264E+01   -0.99005E-04   -0.18941E-03    50   0.465E-01    0.314E-02
RMM:  19    -0.194889195191E+01   -0.99619E-04   -0.30098E-04    50   0.283E-01    0.280E-02
RMM:  20    -0.194891528172E+01   -0.23330E-04   -0.51988E-04    50   0.202E-01    0.346E-02
RMM:  21    -0.194892496781E+01   -0.96861E-05   -0.11578E-04    50   0.167E-01    0.300E-02
RMM:  22    -0.194892823286E+01   -0.32650E-05   -0.68513E-05    51   0.741E-02    0.287E-02
RMM:  23    -0.194893659853E+01   -0.83657E-05   -0.32405E-05    49   0.867E-02    0.274E-02
RMM:  24    -0.194893822837E+01   -0.16298E-05   -0.15768E-05    50   0.378E-02    0.291E-02
RMM:  25    -0.194894058668E+01   -0.23583E-05   -0.27147E-06    45   0.328E-02    0.253E-02
RMM:  26    -0.194894600863E+01   -0.54219E-05   -0.24871E-05    49   0.540E-02    0.200E-02
RMM:  27    -0.194895166349E+01   -0.56549E-05   -0.19751E-05    49   0.551E-02    0.163E-02
RMM:  28    -0.194895471848E+01   -0.30550E-05   -0.13066E-05    48   0.405E-02    0.161E-02
RMM:  29    -0.194895988360E+01   -0.51651E-05   -0.20269E-05    50   0.544E-02    0.120E-02
RMM:  30    -0.194896485082E+01   -0.49672E-05   -0.10278E-05    50   0.429E-02    0.704E-03
RMM:  31    -0.194896719018E+01   -0.23394E-05   -0.31268E-06    46   0.234E-02    0.586E-03
RMM:  32    -0.194896882508E+01   -0.16349E-05   -0.13740E-06    44   0.177E-02    0.573E-03
RMM:  33    -0.194897121650E+01   -0.23914E-05   -0.70864E-06    48   0.261E-02    0.596E-03
RMM:  34    -0.194897384460E+01   -0.26281E-05   -0.15224E-05    50   0.453E-02    0.540E-03
RMM:  35    -0.194897650948E+01   -0.26649E-05   -0.20678E-05    51   0.451E-02    0.549E-03
RMM:  36    -0.194897637168E+01    0.13780E-06   -0.21978E-06    45   0.292E-02
   8 F= -.19492162E+01 E0= -.19492162E+01  d E =-.185978E+01  mag=    -2.0000
       N       E                     dE             d eps       ncg     rms          rms(c)
DAV:   1    -0.194923245825E+01   -0.25595E-03   -0.84754E-03    72   0.163E+00    0.128E-01
RMM:   2    -0.194893547845E+01    0.29698E-03   -0.48180E-04    48   0.308E-01    0.560E-02
RMM:   3    -0.194895595756E+01   -0.20479E-04   -0.51339E-04    52   0.200E-01    0.238E-02
RMM:   4    -0.194896676883E+01   -0.10811E-04   -0.13635E-05    50   0.668E-02    0.204E-02
RMM:   5    -0.194897231753E+01   -0.55487E-05   -0.27423E-06    46   0.186E-02    0.210E-02
RMM:   6    -0.194896661019E+01    0.57073E-05   -0.33407E-06    47   0.294E-02    0.196E-02
RMM:   7    -0.194896435213E+01    0.22581E-05   -0.47776E-06    48   0.211E-02    0.195E-02
RMM:   8    -0.194896182503E+01    0.25271E-05   -0.47599E-06    49   0.292E-02    0.191E-02
RMM:   9    -0.194895697150E+01    0.48535E-05   -0.13387E-05    49   0.369E-02    0.181E-02
RMM:  10    -0.194892345545E+01    0.33516E-04   -0.27700E-04    50   0.172E-01    0.169E-02
RMM:  11    -0.194893761835E+01   -0.14163E-04   -0.28344E-05    50   0.615E-02    0.169E-02
RMM:  12    -0.194893056606E+01    0.70523E-05   -0.34026E-05    51   0.600E-02    0.158E-02
RMM:  13    -0.194891662049E+01    0.13946E-04   -0.10689E-04    50   0.995E-02    0.150E-02
RMM:  14    -0.194888446878E+01    0.32152E-04   -0.40563E-04    51   0.206E-01    0.193E-02
RMM:  15    -0.194887020893E+01    0.14260E-04   -0.47378E-04    52   0.213E-01    0.236E-02
RMM:  16    -0.194886227636E+01    0.79326E-05   -0.40387E-04    49   0.195E-01    0.219E-02
RMM:  17    -0.194887641355E+01   -0.14137E-04   -0.19868E-04    51   0.205E-01    0.224E-02
RMM:  18    -0.194889897601E+01   -0.22562E-04   -0.35494E-05    50   0.754E-02    0.174E-02
RMM:  19    -0.194886862812E+01    0.30348E-04   -0.21937E-04    50   0.150E-01    0.232E-02
RMM:  20    -0.194887543716E+01   -0.68090E-05   -0.49716E-05    49   0.918E-02    0.247E-02
RMM:  21    -0.194888193604E+01   -0.64989E-05   -0.51726E-06    46   0.410E-02    0.232E-02
RMM:  22    -0.194888145708E+01    0.47896E-06   -0.25590E-06    45   0.212E-02
   9 F= -.19491225E+01 E0= -.19491225E+01  d E =-.185969E+01  mag=    -2.0000
       N       E                     dE             d eps       ncg     rms          rms(c)
DAV:   1    -0.194912963575E+01   -0.24770E-03   -0.79524E-03    48   0.159E+00    0.135E-01
RMM:   2    -0.194886683578E+01    0.26280E-03   -0.56697E-04    48   0.345E-01    0.551E-02
RMM:   3    -0.194888501030E+01   -0.18175E-04   -0.33832E-04    51   0.217E-01    0.286E-02
RMM:   4    -0.194889476959E+01   -0.97593E-05   -0.45248E-05    48   0.532E-02    0.235E-02
RMM:   5    -0.194889865891E+01   -0.38893E-05   -0.16262E-05    48   0.876E-02    0.194E-02
RMM:   6    -0.194889912649E+01   -0.46758E-06   -0.16483E-06    45   0.120E-02
  10 F= -.19491390E+01 E0= -.19491390E+01  d E =-.185970E+01  mag=    -2.0000
       N       E                     dE             d eps       ncg     rms          rms(c)
DAV:   1    -0.194889671698E+01    0.19419E-05   -0.43472E-05    84   0.631E-02    0.215E-02
RMM:   2    -0.194889830022E+01   -0.15832E-05   -0.54183E-06    48   0.325E-02    0.203E-02
RMM:   3    -0.194889959575E+01   -0.12955E-05   -0.34239E-06    48   0.199E-02    0.196E-02
RMM:   4    -0.194889950387E+01    0.91880E-07   -0.48189E-07    42   0.125E-02    0.201E-02
RMM:   5    -0.194889893391E+01    0.56996E-06   -0.36940E-07    40   0.798E-03
  11 F= -.19491388E+01 E0= -.19491388E+01  d E =-.185970E+01  mag=    -2.0000
       N       E                     dE             d eps       ncg     rms          rms(c)
DAV:   1    -0.194889435320E+01    0.51507E-05   -0.87565E-05    72   0.695E-02    0.262E-02
RMM:   2    -0.194889705020E+01   -0.26970E-05   -0.46118E-06    47   0.371E-02    0.184E-02
RMM:   3    -0.194889899944E+01   -0.19492E-05   -0.35290E-06    48   0.204E-02    0.177E-02
RMM:   4    -0.194889938173E+01   -0.38230E-06   -0.96997E-07    43   0.187E-02    0.180E-02
RMM:   5    -0.194889954303E+01   -0.16130E-06   -0.42714E-07    40   0.123E-02
  12 F= -.19491394E+01 E0= -.19491394E+01  d E =-.185970E+01  mag=    -2.0000
       N       E                     dE             d eps       ncg     rms          rms(c)
DAV:   1    -0.194889424341E+01    0.51383E-05   -0.10658E-04    72   0.838E-02    0.156E-02
RMM:   2    -0.194889800569E+01   -0.37623E-05   -0.34264E-06    48   0.305E-02    0.179E-02
RMM:   3    -0.194889787961E+01    0.12609E-06   -0.60127E-07    41   0.815E-03    0.180E-02
RMM:   4    -0.194889789001E+01   -0.10406E-07   -0.11186E-07    38   0.791E-03    0.181E-02
RMM:   5    -0.194889808809E+01   -0.19808E-06   -0.86067E-08    40   0.426E-03
  13 F= -.19491380E+01 E0= -.19491380E+01  d E =-.185970E+01  mag=    -2.0000
       N       E                     dE             d eps       ncg     rms          rms(c)
DAV:   1    -0.194889583253E+01    0.20575E-05   -0.19967E-05    72   0.423E-02    0.264E-02
RMM:   2    -0.194889772456E+01   -0.18920E-05   -0.20709E-06    46   0.219E-02    0.184E-02
RMM:   3    -0.194889894360E+01   -0.12190E-05   -0.18438E-06    47   0.131E-02    0.158E-02
RMM:   4    -0.194889848178E+01    0.46183E-06   -0.15253E-07    40   0.102E-02    0.156E-02
RMM:   5    -0.194889588212E+01    0.25997E-05   -0.36268E-06    47   0.220E-02    0.192E-02
RMM:   6    -0.194889614029E+01   -0.25818E-06   -0.71630E-07    40   0.154E-02
  14 F= -.19491360E+01 E0= -.19491360E+01  d E =-.185970E+01  mag=    -2.0000
       N       E                     dE             d eps       ncg     rms          rms(c)
DAV:   1    -0.194889836029E+01   -0.24782E-05   -0.44051E-05    48   0.627E-02    0.142E-02
RMM:   2    -0.194890011802E+01   -0.17577E-05   -0.30252E-06    45   0.154E-02    0.151E-02
RMM:   3    -0.194890058943E+01   -0.47141E-06   -0.77811E-07    41   0.184E-02    0.158E-02
RMM:   4    -0.194889525160E+01    0.53378E-05   -0.71554E-06    48   0.332E-02    0.125E-02
RMM:   5    -0.194889547761E+01   -0.22600E-06   -0.34106E-06    45   0.242E-02
  15 F= -.19491353E+01 E0= -.19491353E+01  d E =-.185970E+01  mag=    -2.0000
       N       E                     dE             d eps       ncg     rms          rms(c)
DAV:   1    -0.194889333838E+01    0.19132E-05   -0.30614E-05    84   0.429E-02    0.121E-02
RMM:   2    -0.194889663985E+01   -0.33015E-05   -0.12397E-06    43   0.168E-02    0.151E-02
RMM:   3    -0.194889583979E+01    0.80005E-06   -0.20857E-07    40   0.947E-03    0.145E-02
RMM:   4    -0.194889415293E+01    0.16869E-05   -0.15895E-06    44   0.126E-02    0.134E-02
RMM:   5    -0.194889427747E+01   -0.12455E-06   -0.37158E-07    40   0.109E-02
  16 F= -.19491341E+01 E0= -.19491341E+01  d E =-.185970E+01  mag=    -2.0000
       N       E                     dE             d eps       ncg     rms          rms(c)
DAV:   1    -0.194888829822E+01    0.58547E-05   -0.89189E-05    72   0.712E-02    0.134E-02
RMM:   2    -0.194889344346E+01   -0.51452E-05   -0.23447E-06    46   0.227E-02    0.178E-02
RMM:   3    -0.194889284766E+01    0.59580E-06   -0.27172E-07    40   0.851E-03    0.182E-02
RMM:   4    -0.194888981044E+01    0.30372E-05   -0.35311E-06    46   0.182E-02    0.151E-02
RMM:   5    -0.194888705936E+01    0.27511E-05   -0.65167E-06    50   0.270E-02    0.146E-02
RMM:   6    -0.194889199407E+01   -0.49347E-05   -0.36921E-05    49   0.624E-02    0.152E-02
RMM:   7    -0.194888897947E+01    0.30146E-05   -0.21167E-04    52   0.153E-01    0.153E-02
RMM:   8    -0.194889617642E+01   -0.71970E-05   -0.66334E-05    51   0.738E-02    0.103E-02
RMM:   9    -0.194889782060E+01   -0.16442E-05   -0.13701E-04    49   0.111E-01    0.630E-03
RMM:  10    -0.194890888206E+01   -0.11061E-04   -0.16302E-05    48   0.824E-02    0.609E-03
RMM:  11    -0.194890939885E+01   -0.51679E-06   -0.80512E-05    50   0.814E-02    0.715E-03
RMM:  12    -0.194891650256E+01   -0.71037E-05   -0.42883E-05    50   0.810E-02    0.425E-03
RMM:  13    -0.194892054355E+01   -0.40410E-05   -0.41727E-05    49   0.689E-02    0.435E-03
RMM:  14    -0.194892428101E+01   -0.37375E-05   -0.11813E-05    46   0.513E-02    0.416E-03
RMM:  15    -0.194892040880E+01    0.38722E-05   -0.10482E-05    48   0.458E-02    0.597E-03
RMM:  16    -0.194891995634E+01    0.45246E-06   -0.31383E-06    46   0.231E-02
  17 F= -.19491598E+01 E0= -.19491598E+01  d E =-.185973E+01  mag=    -2.0000
       N       E                     dE             d eps       ncg     rms          rms(c)
DAV:   1    -0.194892457440E+01   -0.41656E-05   -0.18296E-04    72   0.104E-01    0.493E-03
RMM:   2    -0.194892760697E+01   -0.30326E-05   -0.42014E-06    44   0.143E-02    0.824E-03
RMM:   3    -0.194892834354E+01   -0.73658E-06   -0.12995E-06    44   0.239E-02    0.791E-03
RMM:   4    -0.194892769541E+01    0.64813E-06   -0.10120E-07    40   0.512E-03    0.678E-03
RMM:   5    -0.194892780313E+01   -0.10772E-06   -0.64088E-08    39   0.430E-03
  18 F= -.19491677E+01 E0= -.19491677E+01  d E =-.185973E+01  mag=    -2.0000
       N       E                     dE             d eps       ncg     rms          rms(c)
DAV:   1    -0.194892752479E+01    0.17062E-06   -0.16137E-06    84   0.123E-02    0.702E-03
RMM:   2    -0.194892950678E+01   -0.19820E-05   -0.71611E-07    41   0.114E-02    0.121E-02
RMM:   3    -0.194892760995E+01    0.18968E-05   -0.67147E-07    41   0.135E-02    0.896E-03
RMM:   4    -0.194892720056E+01    0.40939E-06   -0.86443E-07    41   0.836E-03    0.855E-03
RMM:   5    -0.194892766225E+01   -0.46169E-06   -0.76736E-08    39   0.434E-03
  19 F= -.19491675E+01 E0= -.19491675E+01  d E =-.185973E+01  mag=    -2.0000
       N       E                     dE             d eps       ncg     rms          rms(c)
DAV:   1    -0.195453630635E+01   -0.56091E-02   -0.48762E-01    60   0.726E+00    0.852E-01
RMM:   2    -0.195308010087E+01    0.14562E-02   -0.82469E-03    52   0.984E-01    0.793E-01
RMM:   3    -0.195199793178E+01    0.10822E-02   -0.83291E-03    52   0.789E-01    0.726E-01
RMM:   4    -0.194788210652E+01    0.41158E-02   -0.40921E-02    50   0.198E+00    0.491E-01
RMM:   5    -0.194680548688E+01    0.10766E-02   -0.39685E-02    49   0.182E+00    0.320E-01
RMM:   6    -0.194812269719E+01   -0.13172E-02   -0.33402E-03    48   0.129E+00    0.154E-01
RMM:   7    -0.194850872123E+01   -0.38602E-03   -0.64092E-04    51   0.258E-01    0.775E-02
RMM:   8    -0.194886466406E+01   -0.35594E-03   -0.13928E-04    51   0.143E-01    0.300E-02
RMM:   9    -0.194900503582E+01   -0.14037E-03   -0.14213E-04    50   0.109E-01    0.146E-02
RMM:  10    -0.194919627619E+01   -0.19124E-03   -0.26492E-05    49   0.830E-02    0.141E-02
RMM:  11    -0.194930947657E+01   -0.11320E-03   -0.30511E-05    49   0.544E-02    0.777E-03
RMM:  12    -0.194937027631E+01   -0.60800E-04   -0.19201E-05    50   0.520E-02    0.100E-02
RMM:  13    -0.194941527255E+01   -0.44996E-04   -0.31701E-05    51   0.547E-02    0.126E-02
RMM:  14    -0.194941752140E+01   -0.22488E-05   -0.24944E-06    46   0.258E-02    0.122E-02
RMM:  15    -0.194942202229E+01   -0.45009E-05   -0.19165E-06    44   0.166E-02    0.124E-02
RMM:  16    -0.194942007381E+01    0.19485E-05   -0.86660E-07    42   0.150E-02    0.126E-02
RMM:  17    -0.194942746335E+01   -0.73895E-05   -0.97375E-06    49   0.344E-02    0.120E-02
RMM:  18    -0.194944275632E+01   -0.15293E-04   -0.26030E-05    51   0.533E-02    0.108E-02
RMM:  19    -0.194945912849E+01   -0.16372E-04   -0.31124E-05    49   0.622E-02    0.921E-03
RMM:  20    -0.194947399892E+01   -0.14870E-04   -0.56377E-05    51   0.817E-02    0.990E-03
RMM:  21    -0.194949281462E+01   -0.18816E-04   -0.26717E-04    50   0.156E-01    0.115E-02
RMM:  22    -0.194951479344E+01   -0.21979E-04   -0.32745E-04    50   0.211E-01    0.115E-02
RMM:  23    -0.194953458797E+01   -0.19795E-04   -0.15898E-04    51   0.156E-01    0.912E-03
RMM:  24    -0.194954313264E+01   -0.85447E-05   -0.23087E-05    48   0.761E-02    0.869E-03
RMM:  25    -0.194954433343E+01   -0.12008E-05   -0.68713E-06    47   0.383E-02    0.795E-03
RMM:  26    -0.194954711275E+01   -0.27793E-05   -0.23329E-05    50   0.535E-02    0.953E-03
RMM:  27    -0.194954710863E+01    0.41133E-08   -0.16450E-06    44   0.225E-02
  20 F= -.19497858E+01 E0= -.19497858E+01  d E =-.618234E-03  mag=    -2.0000
