       N       E                     dE             d eps       ncg     rms          rms(c)
DAV:   1     0.477711130066E+02    0.47771E+02   -0.74445E+02    96   0.164E+02
DAV:   2     0.334284995801E+02   -0.14343E+02   -0.14093E+02    48   0.294E+01
DAV:   3     0.850799913062E+01   -0.24921E+02   -0.24920E+02    72   0.384E+01
DAV:   4     0.736016966848E-01   -0.84344E+01   -0.83911E+01    48   0.243E+01
DAV:   5    -0.784113250520E-01   -0.15201E+00   -0.14368E+00    48   0.817E+00    0.131E+00
RMM:   6    -0.941610044054E-01   -0.15750E-01   -0.99163E-02    51   0.127E+00    0.344E+00
RMM:   7    -0.468461725442E-01    0.47315E-01   -0.17815E-02    54   0.718E-01    0.644E+00
RMM:   8     0.163991885458E+00    0.21084E+00   -0.48954E-03    48   0.572E-01    0.663E+00
RMM:   9     0.581668542646E-01   -0.10583E+00   -0.27487E-03    48   0.503E-01    0.775E+00
RMM:  10     0.241161258925E-01   -0.34051E-01   -0.54914E-03    49   0.489E-01    0.719E+00
RMM:  11     0.138821542123E+00    0.11471E+00   -0.21456E-03    48   0.445E-01    0.674E+00
RMM:  12     0.307724354362E-01   -0.10805E+00   -0.11166E-02    48   0.831E-01    0.791E+00
RMM:  13     0.240638999619E+00    0.20987E+00   -0.77952E-03    48   0.863E-01    0.765E+00
RMM:  14     0.436038676668E-01   -0.19704E+00   -0.79914E-03    48   0.763E-01    0.758E+00
RMM:  15     0.468582767518E-01    0.32544E-02   -0.28719E-03    48   0.590E-01    0.767E+00
RMM:  16     0.768517900669E-01    0.29994E-01   -0.20791E-03    48   0.416E-01    0.775E+00
RMM:  17     0.150233946094E+00    0.73382E-01   -0.28255E-03    48   0.474E-01    0.756E+00
RMM:  18     0.266087752899E+00    0.11585E+00   -0.27205E-03    48   0.416E-01    0.808E+00
RMM:  19     0.672220971826E-01   -0.19887E+00   -0.44818E-03    48   0.558E-01    0.522E+00
RMM:  20     0.784449714848E-01    0.11223E-01   -0.28290E-03    50   0.356E-01    0.360E+00
RMM:  21    -0.402567670587E-01   -0.11870E+00   -0.28934E-03    48   0.538E-01    0.390E+00
RMM:  22     0.146492970166E-01    0.54906E-01   -0.15570E-03    48   0.384E-01    0.280E+00
RMM:  23    -0.466838029994E-01   -0.61333E-01   -0.10538E-03    48   0.301E-01    0.296E+00
RMM:  24     0.249078445887E-01    0.71592E-01   -0.31502E-03    48   0.570E-01    0.152E+00
RMM:  25    -0.530899481886E-01   -0.77998E-01   -0.15169E-03    48   0.344E-01    0.181E+00
RMM:  26    -0.720872828685E-01   -0.18997E-01   -0.11416E-03    48   0.372E-01    0.469E-01
RMM:  27    -0.810530806596E-01   -0.89658E-02   -0.21026E-04    48   0.153E-01    0.554E-01
RMM:  28    -0.866829869693E-01   -0.56299E-02   -0.19377E-04    48   0.150E-01    0.400E-01
RMM:  29    -0.842546303268E-01    0.24284E-02   -0.89589E-05    48   0.109E-01    0.104E-01
RMM:  30    -0.886279066441E-01   -0.43733E-02   -0.81446E-05    48   0.882E-02    0.122E-01
RMM:  31    -0.887100063850E-01   -0.82100E-04   -0.31040E-05    48   0.643E-02    0.756E-02
RMM:  32    -0.887726974819E-01   -0.62691E-04   -0.28020E-06    46   0.179E-02    0.400E-02
RMM:  33    -0.892447934208E-01   -0.47210E-03   -0.96348E-06    48   0.318E-02    0.338E-02
RMM:  34    -0.891857146427E-01    0.59079E-04   -0.14429E-06    44   0.140E-02    0.104E-02
RMM:  35    -0.893087608646E-01   -0.12305E-03   -0.12949E-06    44   0.117E-02    0.127E-02
RMM:  36    -0.893119393883E-01   -0.31785E-05   -0.41383E-07    40   0.761E-03    0.785E-03
RMM:  37    -0.893237038673E-01   -0.11764E-04   -0.22343E-07    40   0.506E-03    0.439E-03
RMM:  38    -0.893485709086E-01   -0.24867E-04   -0.15762E-07    40   0.398E-03    0.447E-03
RMM:  39    -0.893491518531E-01   -0.58094E-06   -0.68310E-08    40   0.271E-03
   1 F= -.89349200E-01 E0= -.50783621E-01  d E =-.893492E-01  mag=     0.0003
