 vasp.5.4.4.18Apr17-6-g9f103f2a35 (build May 21 2019 18:55:53) complex          
  
 executed on           IFC19_impi date 2025.09.03  10:40:11
 running on   24 total cores
 distrk:  each k-point on   24 cores,    1 groups
 distr:  one band on NCORES_PER_BAND=   4 cores,    6 groups


--------------------------------------------------------------------------------------------------------


 INCAR:
 POTCAR:    PAW_PBE O_GW_new 19Mar2012            
 POTCAR:    PAW_PBE O_GW_new 19Mar2012            
   SHA256 =  c493eb4e480bc193c6922e0b8c73e7a108f48fca6e73afddd92a880a1c2b3374 O_
   COPYR  = (c) Copyright 19Mar2012 Georg Kresse                                
   COPYR  = This file is part of the software VASP. Any use, copying, and all ot
   COPYR  = If you do not have a valid VASP license, you may not use, copy or di
   VRHFIN =O: s2p4                                                              
   LEXCH  = PE                                                                  
   EATOM  =   432.3788 eV,   31.7789 Ry                                         
                                                                                
   TITEL  = PAW_PBE O_GW_new 19Mar2012                                          
   LULTRA =        F    use ultrasoft PP ?                                      
   IUNSCR =        1    unscreen: 0-lin 1-nonlin 2-no                           
   RPACOR =    0.800    partial core radius                                     
   POMASS =   16.000; ZVAL   =    6.000    mass and valenz                      
   RCORE  =    1.600    outmost cutoff radius                                   
   RWIGS  =    1.600; RWIGS  =    0.847    wigner-seitz radius (au A)           
   ENMAX  =  434.431; ENMIN  =  325.824 eV                                      
   ICORE  =        3    local potential                                         
   LCOR   =        T    correct aug charges                                     
   LPAW   =        T    paw PP                                                  
   EAUG   = 1139.609                                                            
   DEXC   =    0.000                                                            
   RMAX   =    1.629    core radius for proj-oper                               
   RAUG   =    1.300    factor for augmentation sphere                          
   RDEP   =    1.652    radius for radial grids                                 
   RDEPT  =    1.200    core radius for aug-charge                              
                                                                                
   Atomic configuration                                                         
    5 entries                                                                   
     n  l   j            E        occ.                                          
     1  0  0.50      -514.6923   2.0000                                         
     2  0  0.50       -23.9615   2.0000                                         
     2  1  0.50        -9.0305   4.0000                                         
     3  2  1.50        -9.5241   0.0000                                         
     4  3  2.50        -9.5241   0.0000                                         
   Description                                                                  
     l       E           TYP  RCUT    TYP  RCUT                                 
     0    -23.9615316     23  1.150                                             
     0    -25.3221142     23  1.150                                             
     0    244.9048680     23  1.300                                             
     1     -9.0304908     23  1.500                                             
     1     -6.9258396     23  1.500                                             
     1    122.4524340     23  1.500                                             
     2     13.6058260     23  1.500                                             
     2    190.4815640     23  1.600                                             
     3     54.4233040     23  1.400                                             
  local pseudopotential read in
  partial core-charges read in
  partial kinetic energy density read in
  kinetic energy density of atom read in
  atomic valenz-charges read in
  non local Contribution for L=           0  read in
    real space projection operators read in
  non local Contribution for L=           0  read in
    real space projection operators read in
  non local Contribution for L=           0  read in
    real space projection operators read in
  non local Contribution for L=           1  read in
    real space projection operators read in
  non local Contribution for L=           1  read in
    real space projection operators read in
  non local Contribution for L=           1  read in
    real space projection operators read in
  non local Contribution for L=           2  read in
    real space projection operators read in
  non local Contribution for L=           2  read in
    real space projection operators read in
    PAW grid and wavefunctions read in
 
   number of l-projection  operators is LMAX  =           8
   number of lm-projection operators is LMMAX =          22
 

 ----------------------------------------------------------------------------- 
|                                                                             |
|  ADVICE TO THIS USER RUNNING 'VASP/VAMP'   (HEAR YOUR MASTER'S VOICE ...):  |
|                                                                             |
|      You have a (more or less) 'small supercell' and for smaller cells      |
|      it is recommended  to use the reciprocal-space projection scheme!      |
|      The real space optimization is not  efficient for small cells and it   |
|      is also less accurate ...                                              |
|      Therefore set LREAL=.FALSE. in the  INCAR file                         |
|                                                                             |
 ----------------------------------------------------------------------------- 

 Optimization of the real space projectors (new method)

 maximal supplied QI-value         = 23.62
 optimisation between [QCUT,QGAM] = [ 11.57, 23.15] = [ 37.52,150.06] Ry 
 Optimized for a Real-space Cutoff    1.53 Angstroem

   l    n(q)    QCUT    max X(q) W(low)/X(q) W(high)/X(q)  e(spline) 
   0     11    11.575   116.464    0.19E-03    0.50E-03    0.68E-05
   0     11    11.575   116.329    0.18E-03    0.48E-03    0.66E-05
   0     11    11.575     0.942    0.91E-04    0.25E-03    0.30E-05
   1     10    11.575    68.203    0.23E-03    0.52E-03    0.69E-05
   1     10    11.575    60.250    0.22E-03    0.51E-03    0.68E-05
   1     10    11.575     2.381    0.21E-03    0.47E-03    0.62E-05
   2     10    11.575     2.237    0.20E-04    0.44E-04    0.41E-06
   2     10    11.575     2.486    0.52E-04    0.84E-04    0.58E-06
  PAW_PBE O_GW_new 19Mar2012            :
 energy of atom  1       EATOM= -432.3788
 kinetic energy error for atom=    0.0246 (will be added to EATOM!!)
 
 
 POSCAR: C                                       
  positions in cartesian coordinates
  No initial velocities read in
 exchange correlation table for  LEXCH =        8
   RHO(1)=    0.500       N(1)  =     2000
   RHO(2)=  100.500       N(2)  =     4000

 VTST: version 3.2, (02/03/18)

 CHAIN: initializing optimizer
 
 OPT: Using VASP Conjugate-Gradient optimizer
 CHAIN: Read ICHAIN            0
 
 POSCAR: C                                       
  positions in cartesian coordinates
  No initial velocities read in
 


--------------------------------------------------------------------------------------------------------


 ion  position               nearest neighbor table
   1  0.996  0.193  0.231-
 

IMPORTANT INFORMATION: All symmetrisations will be switched off!
NOSYMM: (Re-)initialisation of all symmetry stuff for point group C_1.

 
 
 KPOINTS: mof                                     

Automatic generation of k-mesh.
Space group operators:
 irot       det(A)        alpha          n_x          n_y          n_z        tau_x        tau_y        tau_z
    1     1.000000     0.000000     1.000000     0.000000     0.000000     0.000000     0.000000     0.000000
 
 Subroutine IBZKPT returns following result:
 ===========================================
 
 Found      1 irreducible k-points:
 
 Following reciprocal coordinates:
            Coordinates               Weight
  0.000000  0.000000  0.000000      1.000000
 
 Following cartesian coordinates:
            Coordinates               Weight
  0.000000  0.000000  0.000000      1.000000
 


--------------------------------------------------------------------------------------------------------




 Dimension of arrays:
   k-points           NKPTS =      1   k-points in BZ     NKDIM =      1   number of bands    NBANDS=     12
   number of dos      NEDOS =    301   number of ions     NIONS =      1
   non local maximal  LDIM  =      8   non local SUM 2l+1 LMDIM =     22
   total plane-waves  NPLWV = ******
   max r-space proj   IRMAX =   6341   max aug-charges    IRDMAX=   4656
   dimension x,y,z NGX =   224 NGY =  224 NGZ =  224
   dimension x,y,z NGXF=   448 NGYF=  448 NGZF=  448
   support grid    NGXF=   448 NGYF=  448 NGZF=  448
   ions per type =               1
   NGX,Y,Z   is equivalent  to a cutoff of  12.41, 12.41, 12.41 a.u.
   NGXF,Y,Z  is equivalent  to a cutoff of  24.83, 24.83, 24.83 a.u.

 SYSTEM =  Co–organic framework                  
 POSCAR =  C                                       

 Startparameter for this run:
   NWRITE =      2    write-flag & timer
   PREC   = accura    normal or accurate (medium, high low for compatibility)
   ISTART =      0    job   : 0-new  1-cont  2-samecut
   ICHARG =      2    charge: 1-file 2-atom 10-const
   ISPIN  =      2    spin polarized calculation?
   LNONCOLLINEAR =      F non collinear calculations
   LSORBIT =      F    spin-orbit coupling
   INIWAV =      1    electr: 0-lowe 1-rand  2-diag
   LASPH  =      F    aspherical Exc in radial PAW
   METAGGA=      F    non-selfconsistent MetaGGA calc.

 Electronic Relaxation 1
   ENCUT  =  520.0 eV  38.22 Ry    6.18 a.u.  55.78 55.78 55.78*2*pi/ulx,y,z
   ENINI  =  520.0     initial cutoff
   ENAUG  = 1139.6 eV  augmentation charge cutoff
   NELM   =    100;   NELMIN=  5; NELMDL=  0     # of ELM steps 
   EDIFF  = 0.1E-05   stopping-criterion for ELM
   LREAL  =      T    real-space projection
   NLSPLINE    = F    spline interpolate recip. space projectors
   LCOMPAT=      F    compatible to vasp.4.4
   GGA_COMPAT  = T    GGA compatible to vasp.4.4-vasp.4.6
   LMAXPAW     = -100 max onsite density
   LMAXMIX     =    2 max onsite mixed and CHGCAR
   VOSKOWN=      0    Vosko Wilk Nusair interpolation
   ROPT   =   -0.00025
 Ionic relaxation
   EDIFFG = -.5E-02   stopping-criterion for IOM
   NSW    =   1000    number of steps for IOM
   NBLOCK =      1;   KBLOCK =   1000    inner block; outer block 
   IBRION =      2    ionic relax: 0-MD 1-quasi-New 2-CG
   NFREE  =      1    steps in history (QN), initial steepest desc. (CG)
   ISIF   =      2    stress and relaxation
   IWAVPR =     11    prediction:  0-non 1-charg 2-wave 3-comb
   ISYM   =      0    0-nonsym 1-usesym 2-fastsym
   LCORR  =      T    Harris-Foulkes like correction to forces

   POTIM  = 0.5000    time-step for ionic-motion
   TEIN   =    0.0    initial temperature
   TEBEG  =    0.0;   TEEND  =   0.0 temperature during run
   SMASS  =  -3.00    Nose mass-parameter (am)
   estimated Nose-frequenzy (Omega)   =  0.10E-29 period in steps =****** mass=  -0.206E-25a.u.
   SCALEE = 1.0000    scale energy and forces
   NPACO  =    256;   APACO  = 16.0  distance and # of slots for P.C.
   PSTRESS=    0.0 pullay stress

  Mass of Ions in am
   POMASS =  16.00
  Ionic Valenz
   ZVAL   =   6.00
  Atomic Wigner-Seitz radii
   RWIGS  =  -1.00
  virtual crystal weights 
   VCA    =   1.00
   NELECT =       6.0000    total number of electrons
   NUPDOWN=      -1.0000    fix difference up-down

 DOS related values:
   EMIN   =  10.00;   EMAX   =-10.00  energy-range for DOS
   EFERMI =   0.00
   ISMEAR =     0;   SIGMA  =   0.05  broadening in eV -4-tet -1-fermi 0-gaus

 Electronic relaxation 2 (details)
   IALGO  =     68    algorithm
   LDIAG  =      T    sub-space diagonalisation (order eigenvalues)
   LSUBROT=      F    optimize rotation matrix (better conditioning)
   TURBO    =      0    0=normal 1=particle mesh
   IRESTART =      0    0=no restart 2=restart with 2 vectors
   NREBOOT  =      0    no. of reboots
   NMIN     =      0    reboot dimension
   EREF     =   0.00    reference energy to select bands
   IMIX   =      4    mixing-type and parameters
     AMIX     =   0.40;   BMIX     =  1.00
     AMIX_MAG =   1.60;   BMIX_MAG =  1.00
     AMIN     =   0.10
     WC   =   100.;   INIMIX=   1;  MIXPRE=   1;  MAXMIX= -45

 Intra band minimization:
   WEIMIN = 0.0010     energy-eigenvalue tresh-hold
   EBREAK =  0.21E-07  absolut break condition
   DEPER  =   0.30     relativ break condition  

   TIME   =   0.40     timestep for ELM

  volume/ion in A,a.u.               =   27000.00    182204.99
  Fermi-wavevector in a.u.,A,eV,Ry     =   0.099160  0.187386  0.133783  0.009833
  Thomas-Fermi vector in A             =   0.671464
 
 Write flags
   LWAVE        =      F    write WAVECAR
   LDOWNSAMPLE  =      F    k-point downsampling of WAVECAR
   LCHARG       =      T    write CHGCAR
   LVTOT        =      F    write LOCPOT, total local potential
   LVHAR        =      F    write LOCPOT, Hartree potential only
   LELF         =      F    write electronic localiz. function (ELF)
   LORBIT       =      0    0 simple, 1 ext, 2 COOP (PROOUT), +10 PAW based schemes


 Dipole corrections
   LMONO  =      F    monopole corrections only (constant potential shift)
   LDIPOL =      F    correct potential (dipole corrections)
   IDIPOL =      0    1-x, 2-y, 3-z, 4-all directions 
   EPSILON=  1.0000000 bulk dielectric constant

 Exchange correlation treatment:
   GGA     =    --    GGA type
   LEXCH   =     8    internal setting for exchange type
   VOSKOWN=      0    Vosko Wilk Nusair interpolation
   LHFCALC =     F    Hartree Fock is set to
   LHFONE  =     F    Hartree Fock one center treatment
   AEXX    =    0.0000 exact exchange contribution

 Linear response parameters
   LEPSILON=     F    determine dielectric tensor
   LRPA    =     F    only Hartree local field effects (RPA)
   LNABLA  =     F    use nabla operator in PAW spheres
   LVEL    =     F    velocity operator in full k-point grid
   LINTERFAST=   F  fast interpolation
   KINTER  =     0    interpolate to denser k-point grid
   CSHIFT  =0.1000    complex shift for real part using Kramers Kronig
   OMEGAMAX=  -1.0    maximum frequency
   DEG_THRESHOLD= 0.2000000E-02 threshold for treating states as degnerate
   RTIME   =   -0.100 relaxation time in fs
  (WPLASMAI=    0.000 imaginary part of plasma frequency in eV, 0.658/RTIME)
   DFIELD  = 0.0000000 0.0000000 0.0000000 field for delta impulse in time
 
 Orbital magnetization related:
   ORBITALMAG=     F  switch on orbital magnetization
   LCHIMAG   =     F  perturbation theory with respect to B field
   DQ        =  0.001000  dq finite difference perturbation B field
   LLRAUG    =     F  two centre corrections for induced B field



--------------------------------------------------------------------------------------------------------


 conjugate gradient relaxation of ions
 charge density and potential will be updated during run
 spin polarized calculation
 RMM-DIIS sequential band-by-band and
  variant of blocked Davidson during initial phase
 perform sub-space diagonalisation
    before iterative eigenvector-optimisation
 modified Broyden-mixing scheme, WC =      100.0
 initial mixing is a Kerker type mixing with AMIX =  0.4000 and BMIX =      1.0000
 Hartree-type preconditioning will be used
 using additional bands            9
 real space projection scheme for non local part
 use partial core corrections
 calculate Harris-corrections to forces 
   (improved forces if not selfconsistent)
 use gradient corrections 
 use of overlap-Matrix (Vanderbilt PP)
 Gauss-broadening in eV      SIGMA  =   0.05


--------------------------------------------------------------------------------------------------------


  energy-cutoff  :      520.00
  volume of cell :    27000.00
      direct lattice vectors                 reciprocal lattice vectors
    30.000000000  0.000000000  0.000000000     0.033333333  0.000000000  0.000000000
     0.000000000 30.000000000  0.000000000     0.000000000  0.033333333  0.000000000
     0.000000000  0.000000000 30.000000000     0.000000000  0.000000000  0.033333333

  length of vectors
    30.000000000 30.000000000 30.000000000     0.033333333  0.033333333  0.033333333


 
 k-points in units of 2pi/SCALE and weight: mof                                     
   0.00000000  0.00000000  0.00000000       1.000
 
 k-points in reciprocal lattice and weights: mof                                     
   0.00000000  0.00000000  0.00000000       1.000
 
 position of ions in fractional coordinates (direct lattice) 
   0.99569785  0.19332072  0.23141012
 
 position of ions in cartesian coordinates  (Angst):
  29.87093552  5.79962168  6.94230364
 


--------------------------------------------------------------------------------------------------------


 k-point  1 :   0.0000 0.0000 0.0000  plane waves:  727055

 maximum and minimum number of plane-waves per node :    181799   181736

 maximum number of plane-waves:    727055
 maximum index in each direction: 
   IXMAX=   55   IYMAX=   55   IZMAX=   55
   IXMIN=  -55   IYMIN=  -55   IZMIN=  -55


 real space projection operators:
  total allocation   :       1049.64 KBytes
  max/ min on nodes  :        265.03        260.91


 parallel 3D FFT for wavefunctions:
    minimum data exchange during FFTs selected (reduces bandwidth)
 parallel 3D FFT for charge:
    minimum data exchange during FFTs selected (reduces bandwidth)


 total amount of memory used by VASP MPI-rank0   753943. kBytes
=======================================================================

   base      :      30000. kBytes
   nonlr-proj:        428. kBytes
   fftplans  :     211127. kBytes
   grid      :     500706. kBytes
   one-center:         46. kBytes
   wavefun   :      11636. kBytes
 
     INWAV:  cpu time    0.0000: real time    0.0002
 Broyden mixing: mesh for mixing (old mesh)
   NGX =111   NGY =111   NGZ =111
  (NGX  =448   NGY  =448   NGZ  =448)
  gives a total of ****** points

 initial charge density was supplied:
 charge density of overlapping atoms calculated
 number of electron       6.0000000 magnetization       0.0000000
 keeping initial charge density in first step


--------------------------------------------------------------------------------------------------------


 Maximum index for non-local projection operator         1523
 Maximum index for augmentation-charges          309 (set IRDMAX)


--------------------------------------------------------------------------------------------------------


 First call to EWALD:  gamma=   0.059
 Maximum number of real-space cells 3x 3x 3
 Maximum number of reciprocal cells 3x 3x 3

    FEWALD:  cpu time    0.0020: real time    0.0023


--------------------------------------- Iteration      1(   1)  ---------------------------------------


    POTLOK:  cpu time    8.6357: real time    8.6486
    SETDIJ:  cpu time    0.0660: real time    0.0666
     EDDAV:  cpu time    7.9778: real time    8.0051
       DOS:  cpu time    0.0000: real time    0.0006
    --------------------------------------------
      LOOP:  cpu time   16.6795: real time   16.7210

 eigenvalue-minimisations  :    96
 total energy-change (2. order) : 0.4777111E+02  (-0.7444506E+02)
 number of electron       6.0000000 magnetization       0.0000000
 augmentation part        6.0000000 magnetization       0.0000000

 Free energy of the ion-electron system (eV)
  ---------------------------------------------------
  alpha Z        PSCENC =         0.00253073
  Ewald energy   TEWEN  =       -24.51388801
  -Hartree energ DENC   =      -349.08953462
  -exchange      EXHF   =         0.00000000
  -V(xc)+E(xc)   XCENC  =        24.43532884
  PAW double counting   =       349.15150731     -348.34814446
  entropy T*S    EENTRO =        -0.06363868
  eigenvalues    EBANDS =       -36.15728201
  atomic energy  EATOM  =       432.35423390
  Solvation  Ediel_sol  =         0.00000000
  ---------------------------------------------------
  free energy    TOTEN  =        47.77111301 eV

  energy without entropy =       47.83475168  energy(sigma->0) =       47.80293234


--------------------------------------------------------------------------------------------------------




--------------------------------------- Iteration      1(   2)  ---------------------------------------


     EDDAV:  cpu time    4.5473: real time    4.5736
       DOS:  cpu time    0.0000: real time    0.0004
    --------------------------------------------
      LOOP:  cpu time    4.5473: real time    4.5739

 eigenvalue-minimisations  :    48
 total energy-change (2. order) :-0.1434261E+02  (-0.1409309E+02)
 number of electron       6.0000000 magnetization       0.0000000
 augmentation part        6.0000000 magnetization       0.0000000

 Free energy of the ion-electron system (eV)
  ---------------------------------------------------
  alpha Z        PSCENC =         0.00253073
  Ewald energy   TEWEN  =       -24.51388801
  -Hartree energ DENC   =      -349.08953462
  -exchange      EXHF   =         0.00000000
  -V(xc)+E(xc)   XCENC  =        24.43532884
  PAW double counting   =       349.15150731     -348.34814446
  entropy T*S    EENTRO =        -0.00000069
  eigenvalues    EBANDS =       -50.56353342
  atomic energy  EATOM  =       432.35423390
  Solvation  Ediel_sol  =         0.00000000
  ---------------------------------------------------
  free energy    TOTEN  =        33.42849958 eV

  energy without entropy =       33.42850027  energy(sigma->0) =       33.42849993


--------------------------------------------------------------------------------------------------------




--------------------------------------- Iteration      1(   3)  ---------------------------------------


     EDDAV:  cpu time    6.2441: real time    6.2780
       DOS:  cpu time    0.0010: real time    0.0006
    --------------------------------------------
      LOOP:  cpu time    6.2451: real time    6.2786

 eigenvalue-minimisations  :    72
 total energy-change (2. order) :-0.2492050E+02  (-0.2492050E+02)
 number of electron       6.0000000 magnetization       0.0000000
 augmentation part        6.0000000 magnetization       0.0000000

 Free energy of the ion-electron system (eV)
  ---------------------------------------------------
  alpha Z        PSCENC =         0.00253073
  Ewald energy   TEWEN  =       -24.51388801
  -Hartree energ DENC   =      -349.08953462
  -exchange      EXHF   =         0.00000000
  -V(xc)+E(xc)   XCENC  =        24.43532884
  PAW double counting   =       349.15150731     -348.34814446
  entropy T*S    EENTRO =        -0.00000000
  eigenvalues    EBANDS =       -75.48403456
  atomic energy  EATOM  =       432.35423390
  Solvation  Ediel_sol  =         0.00000000
  ---------------------------------------------------
  free energy    TOTEN  =         8.50799913 eV

  energy without entropy =        8.50799913  energy(sigma->0) =        8.50799913


--------------------------------------------------------------------------------------------------------




--------------------------------------- Iteration      1(   4)  ---------------------------------------


     EDDAV:  cpu time    4.5693: real time    4.5809
       DOS:  cpu time    0.0000: real time    0.0004
    --------------------------------------------
      LOOP:  cpu time    4.5693: real time    4.5813

 eigenvalue-minimisations  :    48
 total energy-change (2. order) :-0.8434397E+01  (-0.8391143E+01)
 number of electron       6.0000000 magnetization       0.0000000
 augmentation part        6.0000000 magnetization       0.0000000

 Free energy of the ion-electron system (eV)
  ---------------------------------------------------
  alpha Z        PSCENC =         0.00253073
  Ewald energy   TEWEN  =       -24.51388801
  -Hartree energ DENC   =      -349.08953462
  -exchange      EXHF   =         0.00000000
  -V(xc)+E(xc)   XCENC  =        24.43532884
  PAW double counting   =       349.15150731     -348.34814446
  entropy T*S    EENTRO =        -0.06796456
  eigenvalues    EBANDS =       -83.85046743
  atomic energy  EATOM  =       432.35423390
  Solvation  Ediel_sol  =         0.00000000
  ---------------------------------------------------
  free energy    TOTEN  =         0.07360170 eV

  energy without entropy =        0.14156626  energy(sigma->0) =        0.10758398


--------------------------------------------------------------------------------------------------------




--------------------------------------- Iteration      1(   5)  ---------------------------------------


     EDDAV:  cpu time    4.5683: real time    4.5918
       DOS:  cpu time    0.0000: real time    0.0005
    CHARGE:  cpu time    1.0698: real time    1.0710
    MIXING:  cpu time    0.1460: real time    0.1459
    --------------------------------------------
      LOOP:  cpu time    5.7851: real time    5.8097

 eigenvalue-minimisations  :    48
 total energy-change (2. order) :-0.1520130E+00  (-0.1436783E+00)
 number of electron       5.9999998 magnetization      -0.0004375
 augmentation part        0.4803794 magnetization       0.0051204

 Broyden mixing:
  rms(total) = 0.13093E+00    rms(broyden)= 0.13074E+00
  rms(prec ) = 0.13078E+00
  weight for this iteration     100.00

 Free energy of the ion-electron system (eV)
  ---------------------------------------------------
  alpha Z        PSCENC =         0.00253073
  Ewald energy   TEWEN  =       -24.51388801
  -Hartree energ DENC   =      -349.08953462
  -exchange      EXHF   =         0.00000000
  -V(xc)+E(xc)   XCENC  =        24.43532884
  PAW double counting   =       349.15150731     -348.34814446
  entropy T*S    EENTRO =        -0.07710991
  eigenvalues    EBANDS =       -83.99333511
  atomic energy  EATOM  =       432.35423390
  Solvation  Ediel_sol  =         0.00000000
  ---------------------------------------------------
  free energy    TOTEN  =        -0.07841133 eV

  energy without entropy =       -0.00130142  energy(sigma->0) =       -0.03985637


--------------------------------------------------------------------------------------------------------




--------------------------------------- Iteration      1(   6)  ---------------------------------------


    POTLOK:  cpu time    8.7877: real time    8.7916
    SETDIJ:  cpu time    0.0620: real time    0.0623
    EDDIAG:  cpu time    1.1018: real time    1.1029
  RMM-DIIS:  cpu time    4.1644: real time    4.1651
    ORTHCH:  cpu time    0.0470: real time    0.0472
       DOS:  cpu time    0.0010: real time    0.0006
    CHARGE:  cpu time    1.0598: real time    1.0597
    MIXING:  cpu time    0.1520: real time    0.1529
    --------------------------------------------
      LOOP:  cpu time   15.3757: real time   15.3821

 eigenvalue-minimisations  :    51
 total energy-change (2. order) :-0.1574968E-01  (-0.9916271E-02)
 number of electron       5.9999999 magnetization      -0.0012458
 augmentation part        0.4801211 magnetization       0.1997505

 Broyden mixing:
  rms(total) = 0.34428E+00    rms(broyden)= 0.34222E+00
  rms(prec ) = 0.34251E+00
  weight for this iteration     100.00

 eigenvalues of (default mixing * dielectric matrix)
  average eigenvalue GAMMA=   0.0067
  0.0067

 Free energy of the ion-electron system (eV)
  ---------------------------------------------------
  alpha Z        PSCENC =         0.00253073
  Ewald energy   TEWEN  =       -24.51388801
  -Hartree energ DENC   =      -348.90988339
  -exchange      EXHF   =         0.00000000
  -V(xc)+E(xc)   XCENC  =        24.42467336
  PAW double counting   =       326.76733614     -325.97157525
  entropy T*S    EENTRO =        -0.07022057
  eigenvalues    EBANDS =       -84.17736791
  atomic energy  EATOM  =       432.35423390
  Solvation  Ediel_sol  =         0.00000000
  ---------------------------------------------------
  free energy    TOTEN  =        -0.09416100 eV

  energy without entropy =       -0.02394044  energy(sigma->0) =       -0.05905072


--------------------------------------------------------------------------------------------------------




--------------------------------------- Iteration      1(   7)  ---------------------------------------


    POTLOK:  cpu time    8.7917: real time    8.7968
    SETDIJ:  cpu time    0.0630: real time    0.0635
    EDDIAG:  cpu time    1.0998: real time    1.1003
  RMM-DIIS:  cpu time    4.3533: real time    4.3550
    ORTHCH:  cpu time    0.0470: real time    0.0467
       DOS:  cpu time    0.0000: real time    0.0005
    CHARGE:  cpu time    1.0508: real time    1.0514
    MIXING:  cpu time    0.1580: real time    0.1584
    --------------------------------------------
      LOOP:  cpu time   15.5626: real time   15.5725

 eigenvalue-minimisations  :    54
 total energy-change (2. order) : 0.4731483E-01  (-0.1781528E-02)
 number of electron       5.9999999 magnetization      -0.0010369
 augmentation part        0.4808700 magnetization       0.3678424

 Broyden mixing:
  rms(total) = 0.64386E+00    rms(broyden)= 0.64208E+00
  rms(prec ) = 0.64270E+00
  weight for this iteration     100.00

 eigenvalues of (default mixing * dielectric matrix)
  average eigenvalue GAMMA=   0.1318
  0.2173  0.0462

 Free energy of the ion-electron system (eV)
  ---------------------------------------------------
  alpha Z        PSCENC =         0.00253073
  Ewald energy   TEWEN  =       -24.51388801
  -Hartree energ DENC   =      -348.91014253
  -exchange      EXHF   =         0.00000000
  -V(xc)+E(xc)   XCENC  =        24.49888361
  PAW double counting   =       326.15223356     -325.35655753
  entropy T*S    EENTRO =        -0.04880876
  eigenvalues    EBANDS =       -84.22533112
  atomic energy  EATOM  =       432.35423390
  Solvation  Ediel_sol  =         0.00000000
  ---------------------------------------------------
  free energy    TOTEN  =        -0.04684617 eV

  energy without entropy =        0.00196259  energy(sigma->0) =       -0.02244179


--------------------------------------------------------------------------------------------------------




--------------------------------------- Iteration      1(   8)  ---------------------------------------


    POTLOK:  cpu time    8.7927: real time    8.8123
    SETDIJ:  cpu time    0.0610: real time    0.0618
    EDDIAG:  cpu time    1.1038: real time    1.1044
  RMM-DIIS:  cpu time    3.6974: real time    3.7150
    ORTHCH:  cpu time    0.0460: real time    0.0467
       DOS:  cpu time    0.0010: real time    0.0005
    CHARGE:  cpu time    1.0508: real time    1.0511
    MIXING:  cpu time    0.1670: real time    0.1675
    --------------------------------------------
      LOOP:  cpu time   14.9207: real time   14.9597

 eigenvalue-minimisations  :    48
 total energy-change (2. order) : 0.2108381E+00  (-0.4895422E-03)
 number of electron       5.9999998 magnetization      -0.0014097
 augmentation part        0.4811784 magnetization       0.4687484

 Broyden mixing:
  rms(total) = 0.66255E+00    rms(broyden)= 0.66087E+00
  rms(prec ) = 0.66218E+00
  weight for this iteration     100.00

 eigenvalues of (default mixing * dielectric matrix)
  average eigenvalue GAMMA=   0.0972
  0.2329  0.0430  0.0155

 Free energy of the ion-electron system (eV)
  ---------------------------------------------------
  alpha Z        PSCENC =         0.00253073
  Ewald energy   TEWEN  =       -24.51388801
  -Hartree energ DENC   =      -348.88482010
  -exchange      EXHF   =         0.00000000
  -V(xc)+E(xc)   XCENC  =        24.67025728
  PAW double counting   =       323.82959413     -323.03466367
  entropy T*S    EENTRO =        -0.05229705
  eigenvalues    EBANDS =       -84.20695532
  atomic energy  EATOM  =       432.35423390
  Solvation  Ediel_sol  =         0.00000000
  ---------------------------------------------------
  free energy    TOTEN  =         0.16399189 eV

  energy without entropy =        0.21628894  energy(sigma->0) =        0.19014041


--------------------------------------------------------------------------------------------------------




--------------------------------------- Iteration      1(   9)  ---------------------------------------


    POTLOK:  cpu time    8.8067: real time    8.8122
    SETDIJ:  cpu time    0.0620: real time    0.0623
    EDDIAG:  cpu time    1.1028: real time    1.1031
  RMM-DIIS:  cpu time    3.7314: real time    3.7318
    ORTHCH:  cpu time    0.0450: real time    0.0468
       DOS:  cpu time    0.0010: real time    0.0006
    CHARGE:  cpu time    1.0538: real time    1.0539
    MIXING:  cpu time    0.1780: real time    0.1780
    --------------------------------------------
      LOOP:  cpu time   14.9797: real time   14.9882

 eigenvalue-minimisations  :    48
 total energy-change (2. order) :-0.1058250E+00  (-0.2748650E-03)
 number of electron       5.9999998 magnetization       0.0016747
 augmentation part        0.4813374 magnetization       0.6379846

 Broyden mixing:
  rms(total) = 0.77465E+00    rms(broyden)= 0.77361E+00
  rms(prec ) = 0.77447E+00
  weight for this iteration     100.00

 eigenvalues of (default mixing * dielectric matrix)
  average eigenvalue GAMMA=   0.1403
  0.3787  0.0943  0.0542  0.0341

 Free energy of the ion-electron system (eV)
  ---------------------------------------------------
  alpha Z        PSCENC =         0.00253073
  Ewald energy   TEWEN  =       -24.51388801
  -Hartree energ DENC   =      -348.88457735
  -exchange      EXHF   =         0.00000000
  -V(xc)+E(xc)   XCENC  =        24.58824297
  PAW double counting   =       323.58084993     -322.78594109
  entropy T*S    EENTRO =        -0.04370803
  eigenvalues    EBANDS =       -84.23957620
  atomic energy  EATOM  =       432.35423390
  Solvation  Ediel_sol  =         0.00000000
  ---------------------------------------------------
  free energy    TOTEN  =         0.05816685 eV

  energy without entropy =        0.10187488  energy(sigma->0) =        0.08002087


--------------------------------------------------------------------------------------------------------




--------------------------------------- Iteration      1(  10)  ---------------------------------------


    POTLOK:  cpu time    8.7907: real time    8.7956
    SETDIJ:  cpu time    0.0610: real time    0.0619
    EDDIAG:  cpu time    1.1048: real time    1.1043
  RMM-DIIS:  cpu time    3.9294: real time    3.9320
    ORTHCH:  cpu time    0.0460: real time    0.0466
       DOS:  cpu time    0.0010: real time    0.0006
    CHARGE:  cpu time    1.0598: real time    1.0610
    MIXING:  cpu time    0.1830: real time    0.1836
    --------------------------------------------
      LOOP:  cpu time   15.1767: real time   15.1855

 eigenvalue-minimisations  :    49
 total energy-change (2. order) :-0.3405073E-01  (-0.5491367E-03)
 number of electron       5.9999999 magnetization       0.0003536
 augmentation part        0.4819026 magnetization      -0.1014836

 Broyden mixing:
  rms(total) = 0.71883E+00    rms(broyden)= 0.71782E+00
  rms(prec ) = 0.71901E+00
  weight for this iteration     100.00

 eigenvalues of (default mixing * dielectric matrix)
  average eigenvalue GAMMA=   0.1821
  0.6419  0.1233  0.0556  0.0556  0.0339

 Free energy of the ion-electron system (eV)
  ---------------------------------------------------
  alpha Z        PSCENC =         0.00253073
  Ewald energy   TEWEN  =       -24.51388801
  -Hartree energ DENC   =      -348.84611058
  -exchange      EXHF   =         0.00000000
  -V(xc)+E(xc)   XCENC  =        24.58529770
  PAW double counting   =       318.65600876     -317.86242567
  entropy T*S    EENTRO =        -0.03406600
  eigenvalues    EBANDS =       -84.31746470
  atomic energy  EATOM  =       432.35423390
  Solvation  Ediel_sol  =         0.00000000
  ---------------------------------------------------
  free energy    TOTEN  =         0.02411613 eV

  energy without entropy =        0.05818213  energy(sigma->0) =        0.04114913


--------------------------------------------------------------------------------------------------------




--------------------------------------- Iteration      1(  11)  ---------------------------------------


    POTLOK:  cpu time    8.7907: real time    8.8099
    SETDIJ:  cpu time    0.0620: real time    0.0629
    EDDIAG:  cpu time    1.1048: real time    1.1062
  RMM-DIIS:  cpu time    3.7384: real time    3.7544
    ORTHCH:  cpu time    0.0450: real time    0.0465
       DOS:  cpu time    0.0010: real time    0.0006
    CHARGE:  cpu time    1.0548: real time    1.0555
    MIXING:  cpu time    0.1920: real time    0.1914
    --------------------------------------------
      LOOP:  cpu time   14.9877: real time   15.0273

 eigenvalue-minimisations  :    48
 total energy-change (2. order) : 0.1147054E+00  (-0.2145615E-03)
 number of electron       5.9999999 magnetization       0.0029023
 augmentation part        0.4818111 magnetization       0.1946568

 Broyden mixing:
  rms(total) = 0.67389E+00    rms(broyden)= 0.67298E+00
  rms(prec ) = 0.67479E+00
  weight for this iteration     100.00

 eigenvalues of (default mixing * dielectric matrix)
  average eigenvalue GAMMA=   0.1850
  0.7214  0.1155  0.1155  0.0716  0.0521  0.0340

 Free energy of the ion-electron system (eV)
  ---------------------------------------------------
  alpha Z        PSCENC =         0.00253073
  Ewald energy   TEWEN  =       -24.51388801
  -Hartree energ DENC   =      -348.83380227
  -exchange      EXHF   =         0.00000000
  -V(xc)+E(xc)   XCENC  =        24.65470953
  PAW double counting   =       317.61718563     -316.82404723
  entropy T*S    EENTRO =        -0.04363213
  eigenvalues    EBANDS =       -84.27446860
  atomic energy  EATOM  =       432.35423390
  Solvation  Ediel_sol  =         0.00000000
  ---------------------------------------------------
  free energy    TOTEN  =         0.13882154 eV

  energy without entropy =        0.18245367  energy(sigma->0) =        0.16063761


--------------------------------------------------------------------------------------------------------




--------------------------------------- Iteration      1(  12)  ---------------------------------------


    POTLOK:  cpu time    8.7957: real time    8.8016
    SETDIJ:  cpu time    0.0630: real time    0.0629
    EDDIAG:  cpu time    1.1028: real time    1.1042
  RMM-DIIS:  cpu time    3.7384: real time    3.7374
    ORTHCH:  cpu time    0.0460: real time    0.0469
       DOS:  cpu time    0.0010: real time    0.0005
    CHARGE:  cpu time    1.0558: real time    1.0574
    MIXING:  cpu time    0.2020: real time    0.2013
    --------------------------------------------
      LOOP:  cpu time   15.0047: real time   15.0120

 eigenvalue-minimisations  :    48
 total energy-change (2. order) :-0.1080491E+00  (-0.1116638E-02)
 number of electron       5.9999998 magnetization       0.0027922
 augmentation part        0.4822442 magnetization      -0.1734121

 Broyden mixing:
  rms(total) = 0.79147E+00    rms(broyden)= 0.78594E+00
  rms(prec ) = 0.78810E+00
  weight for this iteration     100.00

 eigenvalues of (default mixing * dielectric matrix)
  average eigenvalue GAMMA=   0.2961
  1.4747  0.2358  0.1163  0.0995  0.0615  0.0511  0.0341

 Free energy of the ion-electron system (eV)
  ---------------------------------------------------
  alpha Z        PSCENC =         0.00253073
  Ewald energy   TEWEN  =       -24.51388801
  -Hartree energ DENC   =      -348.77734120
  -exchange      EXHF   =         0.00000000
  -V(xc)+E(xc)   XCENC  =        24.63304122
  PAW double counting   =       310.80195892     -310.01033700
  entropy T*S    EENTRO =        -0.02396347
  eigenvalues    EBANDS =       -84.43546266
  atomic energy  EATOM  =       432.35423390
  Solvation  Ediel_sol  =         0.00000000
  ---------------------------------------------------
  free energy    TOTEN  =         0.03077244 eV

  energy without entropy =        0.05473590  energy(sigma->0) =        0.04275417


--------------------------------------------------------------------------------------------------------




--------------------------------------- Iteration      1(  13)  ---------------------------------------


    POTLOK:  cpu time    8.7967: real time    8.8012
    SETDIJ:  cpu time    0.0630: real time    0.0635
    EDDIAG:  cpu time    1.1038: real time    1.1041
  RMM-DIIS:  cpu time    3.7744: real time    3.7771
    ORTHCH:  cpu time    0.0460: real time    0.0466
       DOS:  cpu time    0.0000: real time    0.0006
    CHARGE:  cpu time    1.0578: real time    1.0576
    MIXING:  cpu time    0.2120: real time    0.2125
    --------------------------------------------
      LOOP:  cpu time   15.0547: real time   15.0634

 eigenvalue-minimisations  :    48
 total energy-change (2. order) : 0.2098666E+00  (-0.7795162E-03)
 number of electron       6.0000000 magnetization       0.0026241
 augmentation part        0.4822137 magnetization      -0.5045601

 Broyden mixing:
  rms(total) = 0.76491E+00    rms(broyden)= 0.76241E+00
  rms(prec ) = 0.76629E+00
  weight for this iteration     100.00

 eigenvalues of (default mixing * dielectric matrix)
  average eigenvalue GAMMA=   0.3286
  1.9711  0.1362  0.1362  0.1197  0.1115  0.0690  0.0505  0.0340

 Free energy of the ion-electron system (eV)
  ---------------------------------------------------
  alpha Z        PSCENC =         0.00253073
  Ewald energy   TEWEN  =       -24.51388801
  -Hartree energ DENC   =      -348.71672132
  -exchange      EXHF   =         0.00000000
  -V(xc)+E(xc)   XCENC  =        24.74234838
  PAW double counting   =       306.33204074     -305.54225106
  entropy T*S    EENTRO =        -0.04128197
  eigenvalues    EBANDS =       -84.37637238
  atomic energy  EATOM  =       432.35423390
  Solvation  Ediel_sol  =         0.00000000
  ---------------------------------------------------
  free energy    TOTEN  =         0.24063900 eV

  energy without entropy =        0.28192097  energy(sigma->0) =        0.26127999


--------------------------------------------------------------------------------------------------------




--------------------------------------- Iteration      1(  14)  ---------------------------------------


    POTLOK:  cpu time    8.7897: real time    8.8073
    SETDIJ:  cpu time    0.0630: real time    0.0621
    EDDIAG:  cpu time    1.1048: real time    1.1061
  RMM-DIIS:  cpu time    3.7094: real time    3.7286
    ORTHCH:  cpu time    0.0460: real time    0.0465
       DOS:  cpu time    0.0010: real time    0.0005
    CHARGE:  cpu time    1.0448: real time    1.0459
    MIXING:  cpu time    0.2380: real time    0.2376
    --------------------------------------------
      LOOP:  cpu time   14.9957: real time   15.0346

 eigenvalue-minimisations  :    48
 total energy-change (2. order) :-0.1970351E+00  (-0.7991350E-03)
 number of electron       5.9999999 magnetization       0.0023159
 augmentation part        0.4819944 magnetization      -0.2863893

 Broyden mixing:
  rms(total) = 0.75822E+00    rms(broyden)= 0.75342E+00
  rms(prec ) = 0.75596E+00
  weight for this iteration     100.00

 eigenvalues of (default mixing * dielectric matrix)
  average eigenvalue GAMMA=   0.3227
  2.1260  0.1646  0.1646  0.1179  0.1239  0.0340  0.0500  0.0618  0.0618

 Free energy of the ion-electron system (eV)
  ---------------------------------------------------
  alpha Z        PSCENC =         0.00253073
  Ewald energy   TEWEN  =       -24.51388801
  -Hartree energ DENC   =      -348.68643204
  -exchange      EXHF   =         0.00000000
  -V(xc)+E(xc)   XCENC  =        24.58622723
  PAW double counting   =       299.75955988     -298.97147816
  entropy T*S    EENTRO =        -0.03428436
  eigenvalues    EBANDS =       -84.45286530
  atomic energy  EATOM  =       432.35423390
  Solvation  Ediel_sol  =         0.00000000
  ---------------------------------------------------
  free energy    TOTEN  =         0.04360387 eV

  energy without entropy =        0.07788823  energy(sigma->0) =        0.06074605


--------------------------------------------------------------------------------------------------------




--------------------------------------- Iteration      1(  15)  ---------------------------------------


    POTLOK:  cpu time    8.7987: real time    8.8028
    SETDIJ:  cpu time    0.0610: real time    0.0628
    EDDIAG:  cpu time    1.1038: real time    1.1041
  RMM-DIIS:  cpu time    3.7484: real time    3.7485
    ORTHCH:  cpu time    0.0450: real time    0.0464
       DOS:  cpu time    0.0010: real time    0.0005
    CHARGE:  cpu time    1.0618: real time    1.0618
    MIXING:  cpu time    0.2450: real time    0.2450
    --------------------------------------------
      LOOP:  cpu time   15.0657: real time   15.0720

 eigenvalue-minimisations  :    48
 total energy-change (2. order) : 0.3254409E-02  (-0.2871944E-03)
 number of electron       5.9999999 magnetization       0.0019305
 augmentation part        0.4820964 magnetization      -0.3078139

 Broyden mixing:
  rms(total) = 0.76654E+00    rms(broyden)= 0.76598E+00
  rms(prec ) = 0.76866E+00
  weight for this iteration     100.00

 eigenvalues of (default mixing * dielectric matrix)
  average eigenvalue GAMMA=   0.3114
  2.2554  0.1470  0.1470  0.1146  0.1146  0.1144  0.0340  0.0505  0.0681  0.0681

 Free energy of the ion-electron system (eV)
  ---------------------------------------------------
  alpha Z        PSCENC =         0.00253073
  Ewald energy   TEWEN  =       -24.51388801
  -Hartree energ DENC   =      -348.67181765
  -exchange      EXHF   =         0.00000000
  -V(xc)+E(xc)   XCENC  =        24.59004430
  PAW double counting   =       299.47084571     -298.68291911
  entropy T*S    EENTRO =        -0.03419396
  eigenvalues    EBANDS =       -84.46797763
  atomic energy  EATOM  =       432.35423390
  Solvation  Ediel_sol  =         0.00000000
  ---------------------------------------------------
  free energy    TOTEN  =         0.04685828 eV

  energy without entropy =        0.08105224  energy(sigma->0) =        0.06395526


--------------------------------------------------------------------------------------------------------




--------------------------------------- Iteration      1(  16)  ---------------------------------------


    POTLOK:  cpu time    8.7947: real time    8.8006
    SETDIJ:  cpu time    0.0660: real time    0.0659
    EDDIAG:  cpu time    1.1018: real time    1.1016
  RMM-DIIS:  cpu time    3.7854: real time    3.7881
    ORTHCH:  cpu time    0.0470: real time    0.0466
       DOS:  cpu time    0.0000: real time    0.0005
    CHARGE:  cpu time    1.0598: real time    1.0603
    MIXING:  cpu time    0.2510: real time    0.2518
    --------------------------------------------
      LOOP:  cpu time   15.1057: real time   15.1155

 eigenvalue-minimisations  :    48
 total energy-change (2. order) : 0.2999351E-01  (-0.2079124E-03)
 number of electron       5.9999998 magnetization       0.0019358
 augmentation part        0.4821553 magnetization      -0.3478975

 Broyden mixing:
  rms(total) = 0.77472E+00    rms(broyden)= 0.77252E+00
  rms(prec ) = 0.77405E+00
  weight for this iteration     100.00

 eigenvalues of (default mixing * dielectric matrix)
  average eigenvalue GAMMA=   0.2965
  2.3003  0.1589  0.1589  0.1316  0.1238  0.1235  0.0672  0.0672  0.0340  0.0481
  0.0481

 Free energy of the ion-electron system (eV)
  ---------------------------------------------------
  alpha Z        PSCENC =         0.00253073
  Ewald energy   TEWEN  =       -24.51388801
  -Hartree energ DENC   =      -348.68977457
  -exchange      EXHF   =         0.00000000
  -V(xc)+E(xc)   XCENC  =        24.61515390
  PAW double counting   =       297.69244654     -296.90499685
  entropy T*S    EENTRO =        -0.03268223
  eigenvalues    EBANDS =       -84.44617162
  atomic energy  EATOM  =       432.35423390
  Solvation  Ediel_sol  =         0.00000000
  ---------------------------------------------------
  free energy    TOTEN  =         0.07685179 eV

  energy without entropy =        0.10953402  energy(sigma->0) =        0.09319290


--------------------------------------------------------------------------------------------------------




--------------------------------------- Iteration      1(  17)  ---------------------------------------


    POTLOK:  cpu time    8.7957: real time    8.8186
    SETDIJ:  cpu time    0.0630: real time    0.0626
    EDDIAG:  cpu time    1.1048: real time    1.1053
  RMM-DIIS:  cpu time    3.7084: real time    3.7269
    ORTHCH:  cpu time    0.0460: real time    0.0464
       DOS:  cpu time    0.0010: real time    0.0007
    CHARGE:  cpu time    1.0588: real time    1.0596
    MIXING:  cpu time    0.2660: real time    0.2656
    --------------------------------------------
      LOOP:  cpu time   15.0427: real time   15.0858

 eigenvalue-minimisations  :    48
 total energy-change (2. order) : 0.7338216E-01  (-0.2825521E-03)
 number of electron       5.9999998 magnetization       0.0035409
 augmentation part        0.4823675 magnetization      -0.2744461

 Broyden mixing:
  rms(total) = 0.75586E+00    rms(broyden)= 0.75572E+00
  rms(prec ) = 0.75728E+00
  weight for this iteration     100.00

 eigenvalues of (default mixing * dielectric matrix)
  average eigenvalue GAMMA=   0.3101
  2.4330  0.2046  0.2046  0.1822  0.1822  0.1168  0.0340  0.0926  0.0507  0.0756
  0.0756  0.0696

 Free energy of the ion-electron system (eV)
  ---------------------------------------------------
  alpha Z        PSCENC =         0.00253073
  Ewald energy   TEWEN  =       -24.51388801
  -Hartree energ DENC   =      -348.68364357
  -exchange      EXHF   =         0.00000000
  -V(xc)+E(xc)   XCENC  =        24.68309369
  PAW double counting   =       297.66562806     -296.87820349
  entropy T*S    EENTRO =        -0.03351529
  eigenvalues    EBANDS =       -84.44600208
  atomic energy  EATOM  =       432.35423390
  Solvation  Ediel_sol  =         0.00000000
  ---------------------------------------------------
  free energy    TOTEN  =         0.15023395 eV

  energy without entropy =        0.18374923  energy(sigma->0) =        0.16699159


--------------------------------------------------------------------------------------------------------




--------------------------------------- Iteration      1(  18)  ---------------------------------------


    POTLOK:  cpu time    8.8067: real time    8.8111
    SETDIJ:  cpu time    0.0630: real time    0.0634
    EDDIAG:  cpu time    1.1048: real time    1.1053
  RMM-DIIS:  cpu time    3.7504: real time    3.7497
    ORTHCH:  cpu time    0.0460: real time    0.0465
       DOS:  cpu time    0.0000: real time    0.0006
    CHARGE:  cpu time    1.0538: real time    1.0541
    MIXING:  cpu time    0.2840: real time    0.2845
    --------------------------------------------
      LOOP:  cpu time   15.1087: real time   15.1153

 eigenvalue-minimisations  :    48
 total energy-change (2. order) : 0.1158538E+00  (-0.2720540E-03)
 number of electron       5.9999999 magnetization       0.0017929
 augmentation part        0.4818185 magnetization      -0.8749271

 Broyden mixing:
  rms(total) = 0.80837E+00    rms(broyden)= 0.80659E+00
  rms(prec ) = 0.80741E+00
  weight for this iteration     100.00

 eigenvalues of (default mixing * dielectric matrix)
  average eigenvalue GAMMA=   0.2870
  2.4332  0.2032  0.2032  0.1842  0.1842  0.1167  0.0929  0.0340  0.0756  0.0756
  0.0507  0.0695  0.0076

 Free energy of the ion-electron system (eV)
  ---------------------------------------------------
  alpha Z        PSCENC =         0.00253073
  Ewald energy   TEWEN  =       -24.51388801
  -Hartree energ DENC   =      -348.85815545
  -exchange      EXHF   =         0.00000000
  -V(xc)+E(xc)   XCENC  =        24.75160101
  PAW double counting   =       296.44699250     -295.66011429
  entropy T*S    EENTRO =        -0.05366127
  eigenvalues    EBANDS =       -84.20345136
  atomic energy  EATOM  =       432.35423390
  Solvation  Ediel_sol  =         0.00000000
  ---------------------------------------------------
  free energy    TOTEN  =         0.26608775 eV

  energy without entropy =        0.31974903  energy(sigma->0) =        0.29291839


--------------------------------------------------------------------------------------------------------




--------------------------------------- Iteration      1(  19)  ---------------------------------------


    POTLOK:  cpu time    8.8067: real time    8.8114
    SETDIJ:  cpu time    0.0600: real time    0.0615
    EDDIAG:  cpu time    1.1048: real time    1.1044
  RMM-DIIS:  cpu time    3.7404: real time    3.7427
    ORTHCH:  cpu time    0.0460: real time    0.0465
       DOS:  cpu time    0.0010: real time    0.0006
    CHARGE:  cpu time    1.0528: real time    1.0531
    MIXING:  cpu time    0.3010: real time    0.3019
    --------------------------------------------
      LOOP:  cpu time   15.1137: real time   15.1222

 eigenvalue-minimisations  :    48
 total energy-change (2. order) :-0.1988657E+00  (-0.4481804E-03)
 number of electron       5.9999999 magnetization      -0.0003833
 augmentation part        0.4813079 magnetization      -0.4262291

 Broyden mixing:
  rms(total) = 0.52216E+00    rms(broyden)= 0.52187E+00
  rms(prec ) = 0.52241E+00
  weight for this iteration     100.00

 eigenvalues of (default mixing * dielectric matrix)
  average eigenvalue GAMMA=   0.3402
  2.4667  0.4998  0.4048  0.4048  0.1621  0.1621  0.1497  0.1167  0.0340  0.0507
  0.0843  0.0778  0.0778  0.0719

 Free energy of the ion-electron system (eV)
  ---------------------------------------------------
  alpha Z        PSCENC =         0.00253073
  Ewald energy   TEWEN  =       -24.51388801
  -Hartree energ DENC   =      -348.88628286
  -exchange      EXHF   =         0.00000000
  -V(xc)+E(xc)   XCENC  =        24.57572771
  PAW double counting   =       296.50455891     -295.71761063
  entropy T*S    EENTRO =        -0.06327955
  eigenvalues    EBANDS =       -84.18876810
  atomic energy  EATOM  =       432.35423390
  Solvation  Ediel_sol  =         0.00000000
  ---------------------------------------------------
  free energy    TOTEN  =         0.06722210 eV

  energy without entropy =        0.13050165  energy(sigma->0) =        0.09886187


--------------------------------------------------------------------------------------------------------




--------------------------------------- Iteration      1(  20)  ---------------------------------------


    POTLOK:  cpu time    8.7817: real time    8.8044
    SETDIJ:  cpu time    0.0620: real time    0.0627
    EDDIAG:  cpu time    1.1028: real time    1.1040
  RMM-DIIS:  cpu time    3.9354: real time    3.9507
    ORTHCH:  cpu time    0.0470: real time    0.0464
       DOS:  cpu time    0.0000: real time    0.0006
    CHARGE:  cpu time    1.0558: real time    1.0560
    MIXING:  cpu time    0.3200: real time    0.3200
    --------------------------------------------
      LOOP:  cpu time   15.3037: real time   15.3446

 eigenvalue-minimisations  :    50
 total energy-change (2. order) : 0.1122287E-01  (-0.2828983E-03)
 number of electron       5.9999998 magnetization      -0.0003402
 augmentation part        0.4803251 magnetization       0.2432362

 Broyden mixing:
  rms(total) = 0.36001E+00    rms(broyden)= 0.35429E+00
  rms(prec ) = 0.35559E+00
  weight for this iteration     100.00

 eigenvalues of (default mixing * dielectric matrix)
  average eigenvalue GAMMA=   0.3176
  2.4671  0.4952  0.4036  0.4036  0.1621  0.1621  0.1496  0.1167  0.0340  0.0507
  0.0843  0.0778  0.0778  0.0719  0.0072

 Free energy of the ion-electron system (eV)
  ---------------------------------------------------
  alpha Z        PSCENC =         0.00253073
  Ewald energy   TEWEN  =       -24.51388801
  -Hartree energ DENC   =      -349.04238093
  -exchange      EXHF   =         0.00000000
  -V(xc)+E(xc)   XCENC  =        24.59076982
  PAW double counting   =       296.28454459     -295.49762584
  entropy T*S    EENTRO =        -0.06997380
  eigenvalues    EBANDS =       -84.02976547
  atomic energy  EATOM  =       432.35423390
  Solvation  Ediel_sol  =         0.00000000
  ---------------------------------------------------
  free energy    TOTEN  =         0.07844497 eV

  energy without entropy =        0.14841877  energy(sigma->0) =        0.11343187


--------------------------------------------------------------------------------------------------------




--------------------------------------- Iteration      1(  21)  ---------------------------------------


    POTLOK:  cpu time    8.7977: real time    8.8018
    SETDIJ:  cpu time    0.0620: real time    0.0630
    EDDIAG:  cpu time    1.1048: real time    1.1049
  RMM-DIIS:  cpu time    3.7434: real time    3.7440
    ORTHCH:  cpu time    0.0460: real time    0.0463
       DOS:  cpu time    0.0000: real time    0.0006
    CHARGE:  cpu time    1.0608: real time    1.0617
    MIXING:  cpu time    0.3320: real time    0.3315
    --------------------------------------------
      LOOP:  cpu time   15.1467: real time   15.1537

 eigenvalue-minimisations  :    48
 total energy-change (2. order) :-0.1187017E+00  (-0.2893391E-03)
 number of electron       5.9999998 magnetization       0.0000079
 augmentation part        0.4801446 magnetization       0.2753463

 Broyden mixing:
  rms(total) = 0.38980E+00    rms(broyden)= 0.38817E+00
  rms(prec ) = 0.38898E+00
  weight for this iteration     100.00

 eigenvalues of (default mixing * dielectric matrix)
  average eigenvalue GAMMA=   0.3171
  2.4671  0.5214  0.4007  0.4007  0.1631  0.1631  0.1494  0.1167  0.1473  0.1473
  0.0340  0.0507  0.0847  0.0777  0.0777  0.0719

 Free energy of the ion-electron system (eV)
  ---------------------------------------------------
  alpha Z        PSCENC =         0.00253073
  Ewald energy   TEWEN  =       -24.51388801
  -Hartree energ DENC   =      -349.07449180
  -exchange      EXHF   =         0.00000000
  -V(xc)+E(xc)   XCENC  =        24.48694045
  PAW double counting   =       296.31845401     -295.53153904
  entropy T*S    EENTRO =        -0.06813283
  eigenvalues    EBANDS =       -84.01436417
  atomic energy  EATOM  =       432.35423390
  Solvation  Ediel_sol  =         0.00000000
  ---------------------------------------------------
  free energy    TOTEN  =        -0.04025677 eV

  energy without entropy =        0.02787606  energy(sigma->0) =       -0.00619035


--------------------------------------------------------------------------------------------------------




--------------------------------------- Iteration      1(  22)  ---------------------------------------


    POTLOK:  cpu time    8.7867: real time    8.7981
    SETDIJ:  cpu time    0.0610: real time    0.0623
    EDDIAG:  cpu time    1.1028: real time    1.1053
  RMM-DIIS:  cpu time    3.7454: real time    3.7474
    ORTHCH:  cpu time    0.0450: real time    0.0465
       DOS:  cpu time    0.0010: real time    0.0005
    CHARGE:  cpu time    1.0558: real time    1.0576
    MIXING:  cpu time    0.3499: real time    0.3519
    --------------------------------------------
      LOOP:  cpu time   15.1487: real time   15.1697

 eigenvalue-minimisations  :    48
 total energy-change (2. order) : 0.5490606E-01  (-0.1557034E-03)
 number of electron       5.9999998 magnetization       0.0006638
 augmentation part        0.4800767 magnetization       0.2786592

 Broyden mixing:
  rms(total) = 0.27956E+00    rms(broyden)= 0.27825E+00
  rms(prec ) = 0.27876E+00
  weight for this iteration     100.00

 eigenvalues of (default mixing * dielectric matrix)
  average eigenvalue GAMMA=   0.3680
  2.4900  0.7523  0.7523  0.4012  0.4012  0.2348  0.2348  0.1631  0.1631  0.1495
  0.1167  0.0340  0.0507  0.0777  0.0777  0.0847  0.0719

 Free energy of the ion-electron system (eV)
  ---------------------------------------------------
  alpha Z        PSCENC =         0.00253073
  Ewald energy   TEWEN  =       -24.51388801
  -Hartree energ DENC   =      -349.06394296
  -exchange      EXHF   =         0.00000000
  -V(xc)+E(xc)   XCENC  =        24.52927218
  PAW double counting   =       296.27648864     -295.48958148
  entropy T*S    EENTRO =        -0.07410145
  eigenvalues    EBANDS =       -84.00636225
  atomic energy  EATOM  =       432.35423390
  Solvation  Ediel_sol  =         0.00000000
  ---------------------------------------------------
  free energy    TOTEN  =         0.01464930 eV

  energy without entropy =        0.08875074  energy(sigma->0) =        0.05170002


--------------------------------------------------------------------------------------------------------




--------------------------------------- Iteration      1(  23)  ---------------------------------------


    POTLOK:  cpu time    8.7987: real time    8.8037
    SETDIJ:  cpu time    0.0610: real time    0.0609
    EDDIAG:  cpu time    1.1028: real time    1.1030
  RMM-DIIS:  cpu time    3.7444: real time    3.7465
    ORTHCH:  cpu time    0.0460: real time    0.0463
       DOS:  cpu time    0.0010: real time    0.0007
    CHARGE:  cpu time    1.0568: real time    1.0573
    MIXING:  cpu time    0.3709: real time    0.3714
    --------------------------------------------
      LOOP:  cpu time   15.1817: real time   15.1898

 eigenvalue-minimisations  :    48
 total energy-change (2. order) :-0.6133310E-01  (-0.1053757E-03)
 number of electron       5.9999999 magnetization       0.0011877
 augmentation part        0.4799329 magnetization       0.1597125

 Broyden mixing:
  rms(total) = 0.29564E+00    rms(broyden)= 0.29019E+00
  rms(prec ) = 0.29035E+00
  weight for this iteration     100.00

 eigenvalues of (default mixing * dielectric matrix)
  average eigenvalue GAMMA=   0.3782
  2.4974  1.0577  0.6147  0.3933  0.3933  0.4252  0.2182  0.2182  0.1630  0.1630
  0.1496  0.1167  0.0340  0.0507  0.0777  0.0777  0.0847  0.0719

 Free energy of the ion-electron system (eV)
  ---------------------------------------------------
  alpha Z        PSCENC =         0.00253073
  Ewald energy   TEWEN  =       -24.51388801
  -Hartree energ DENC   =      -349.09733639
  -exchange      EXHF   =         0.00000000
  -V(xc)+E(xc)   XCENC  =        24.48018192
  PAW double counting   =       296.25825387     -295.47121395
  entropy T*S    EENTRO =        -0.07176099
  eigenvalues    EBANDS =       -83.98768488
  atomic energy  EATOM  =       432.35423390
  Solvation  Ediel_sol  =         0.00000000
  ---------------------------------------------------
  free energy    TOTEN  =        -0.04668380 eV

  energy without entropy =        0.02507718  energy(sigma->0) =       -0.01080331


--------------------------------------------------------------------------------------------------------




--------------------------------------- Iteration      1(  24)  ---------------------------------------


    POTLOK:  cpu time    8.8027: real time    8.8072
    SETDIJ:  cpu time    0.0640: real time    0.0645
    EDDIAG:  cpu time    1.1038: real time    1.1051
  RMM-DIIS:  cpu time    3.7504: real time    3.7519
    ORTHCH:  cpu time    0.0460: real time    0.0466
       DOS:  cpu time    0.0010: real time    0.0005
    CHARGE:  cpu time    1.0568: real time    1.0577
    MIXING:  cpu time    0.3909: real time    0.3908
    --------------------------------------------
      LOOP:  cpu time   15.2147: real time   15.2242

 eigenvalue-minimisations  :    48
 total energy-change (2. order) : 0.7159165E-01  (-0.3150173E-03)
 number of electron       5.9999998 magnetization       0.0014077
 augmentation part        0.4799739 magnetization      -0.0376856

 Broyden mixing:
  rms(total) = 0.15250E+00    rms(broyden)= 0.14997E+00
  rms(prec ) = 0.15042E+00
  weight for this iteration     100.00

 eigenvalues of (default mixing * dielectric matrix)
  average eigenvalue GAMMA=   0.3693
  2.4968  1.0792  0.5992  0.3829  0.3829  0.3259  0.3259  0.2171  0.2171  0.1631
  0.1631  0.1495  0.1167  0.0340  0.0847  0.0777  0.0777  0.0507  0.0719

 Free energy of the ion-electron system (eV)
  ---------------------------------------------------
  alpha Z        PSCENC =         0.00253073
  Ewald energy   TEWEN  =       -24.51388801
  -Hartree energ DENC   =      -349.09452179
  -exchange      EXHF   =         0.00000000
  -V(xc)+E(xc)   XCENC  =        24.54183858
  PAW double counting   =       296.23350683     -295.44636790
  entropy T*S    EENTRO =        -0.07561819
  eigenvalues    EBANDS =       -83.97680630
  atomic energy  EATOM  =       432.35423390
  Solvation  Ediel_sol  =         0.00000000
  ---------------------------------------------------
  free energy    TOTEN  =         0.02490784 eV

  energy without entropy =        0.10052604  energy(sigma->0) =        0.06271694


--------------------------------------------------------------------------------------------------------




--------------------------------------- Iteration      1(  25)  ---------------------------------------


    POTLOK:  cpu time    8.8047: real time    8.8104
    SETDIJ:  cpu time    0.0630: real time    0.0627
    EDDIAG:  cpu time    1.1028: real time    1.1044
  RMM-DIIS:  cpu time    3.7454: real time    3.7479
    ORTHCH:  cpu time    0.0470: real time    0.0465
       DOS:  cpu time    0.0000: real time    0.0007
    CHARGE:  cpu time    1.0568: real time    1.0601
    MIXING:  cpu time    0.4169: real time    0.4180
    --------------------------------------------
      LOOP:  cpu time   15.2377: real time   15.2508

 eigenvalue-minimisations  :    48
 total energy-change (2. order) :-0.7799779E-01  (-0.1516904E-03)
 number of electron       5.9999998 magnetization       0.0010017
 augmentation part        0.4798998 magnetization      -0.1563555

 Broyden mixing:
  rms(total) = 0.18067E+00    rms(broyden)= 0.17779E+00
  rms(prec ) = 0.17800E+00
  weight for this iteration     100.00

 eigenvalues of (default mixing * dielectric matrix)
  average eigenvalue GAMMA=   0.3876
  2.4954  1.0571  0.6190  0.4892  0.4892  0.4292  0.3736  0.3736  0.2186  0.2186
  0.1631  0.1631  0.1495  0.1167  0.0340  0.0507  0.0777  0.0777  0.0847  0.0719

 Free energy of the ion-electron system (eV)
  ---------------------------------------------------
  alpha Z        PSCENC =         0.00253073
  Ewald energy   TEWEN  =       -24.51388801
  -Hartree energ DENC   =      -349.10961469
  -exchange      EXHF   =         0.00000000
  -V(xc)+E(xc)   XCENC  =        24.47199346
  PAW double counting   =       296.25309950     -295.46595295
  entropy T*S    EENTRO =        -0.07559607
  eigenvalues    EBANDS =       -83.96989582
  atomic energy  EATOM  =       432.35423390
  Solvation  Ediel_sol  =         0.00000000
  ---------------------------------------------------
  free energy    TOTEN  =        -0.05308995 eV

  energy without entropy =        0.02250612  energy(sigma->0) =       -0.01529191


--------------------------------------------------------------------------------------------------------




--------------------------------------- Iteration      1(  26)  ---------------------------------------


    POTLOK:  cpu time    8.7957: real time    8.8001
    SETDIJ:  cpu time    0.0650: real time    0.0656
    EDDIAG:  cpu time    1.1008: real time    1.1052
  RMM-DIIS:  cpu time    3.7434: real time    3.7452
    ORTHCH:  cpu time    0.0470: real time    0.0463
       DOS:  cpu time    0.0000: real time    0.0006
    CHARGE:  cpu time    1.0578: real time    1.0586
    MIXING:  cpu time    0.4369: real time    0.4370
    --------------------------------------------
      LOOP:  cpu time   15.2457: real time   15.2586

 eigenvalue-minimisations  :    48
 total energy-change (2. order) :-0.1899733E-01  (-0.1141606E-03)
 number of electron       5.9999998 magnetization       0.0010242
 augmentation part        0.4798573 magnetization      -0.0199116

 Broyden mixing:
  rms(total) = 0.46868E-01    rms(broyden)= 0.45832E-01
  rms(prec ) = 0.45908E-01
  weight for this iteration     100.00

 eigenvalues of (default mixing * dielectric matrix)
  average eigenvalue GAMMA=   0.4464
  2.4997  1.0436  1.0436  1.0340  0.6663  0.4467  0.4467  0.3839  0.3839  0.2189
  0.2189  0.1631  0.1631  0.1495  0.1167  0.0340  0.0507  0.0777  0.0777  0.0847
  0.0719

 Free energy of the ion-electron system (eV)
  ---------------------------------------------------
  alpha Z        PSCENC =         0.00253073
  Ewald energy   TEWEN  =       -24.51388801
  -Hartree energ DENC   =      -349.08976898
  -exchange      EXHF   =         0.00000000
  -V(xc)+E(xc)   XCENC  =        24.45309766
  PAW double counting   =       296.20063000     -295.41339755
  entropy T*S    EENTRO =        -0.07699732
  eigenvalues    EBANDS =       -83.98852772
  atomic energy  EATOM  =       432.35423390
  Solvation  Ediel_sol  =         0.00000000
  ---------------------------------------------------
  free energy    TOTEN  =        -0.07208728 eV

  energy without entropy =        0.00491003  energy(sigma->0) =       -0.03358862


--------------------------------------------------------------------------------------------------------




--------------------------------------- Iteration      1(  27)  ---------------------------------------


    POTLOK:  cpu time    8.8017: real time    8.8063
    SETDIJ:  cpu time    0.0630: real time    0.0642
    EDDIAG:  cpu time    1.1038: real time    1.1044
  RMM-DIIS:  cpu time    3.7424: real time    3.7442
    ORTHCH:  cpu time    0.0470: real time    0.0466
       DOS:  cpu time    0.0000: real time    0.0005
    CHARGE:  cpu time    1.0588: real time    1.0599
    MIXING:  cpu time    0.4599: real time    0.4598
    --------------------------------------------
      LOOP:  cpu time   15.2767: real time   15.2860

 eigenvalue-minimisations  :    48
 total energy-change (2. order) :-0.8965798E-02  (-0.2102617E-04)
 number of electron       5.9999998 magnetization       0.0007695
 augmentation part        0.4798725 magnetization      -0.0506295

 Broyden mixing:
  rms(total) = 0.55425E-01    rms(broyden)= 0.54790E-01
  rms(prec ) = 0.54899E-01
  weight for this iteration     100.00

 eigenvalues of (default mixing * dielectric matrix)
  average eigenvalue GAMMA=   0.4728
  2.4969  1.4235  1.4235  0.7401  0.7401  0.4639  0.4639  0.4548  0.3836  0.3836
  0.2189  0.2189  0.1631  0.1631  0.1495  0.1167  0.0340  0.0507  0.0777  0.0777
  0.0847  0.0719

 Free energy of the ion-electron system (eV)
  ---------------------------------------------------
  alpha Z        PSCENC =         0.00253073
  Ewald energy   TEWEN  =       -24.51388801
  -Hartree energ DENC   =      -349.07932521
  -exchange      EXHF   =         0.00000000
  -V(xc)+E(xc)   XCENC  =        24.44453658
  PAW double counting   =       296.15937510     -295.37203878
  entropy T*S    EENTRO =        -0.07700140
  eigenvalues    EBANDS =       -83.99947599
  atomic energy  EATOM  =       432.35423390
  Solvation  Ediel_sol  =         0.00000000
  ---------------------------------------------------
  free energy    TOTEN  =        -0.08105308 eV

  energy without entropy =       -0.00405168  energy(sigma->0) =       -0.04255238


--------------------------------------------------------------------------------------------------------




--------------------------------------- Iteration      1(  28)  ---------------------------------------


    POTLOK:  cpu time    8.7987: real time    8.8027
    SETDIJ:  cpu time    0.0610: real time    0.0620
    EDDIAG:  cpu time    1.1028: real time    1.1044
  RMM-DIIS:  cpu time    3.7374: real time    3.7404
    ORTHCH:  cpu time    0.0460: real time    0.0465
       DOS:  cpu time    0.0010: real time    0.0005
    CHARGE:  cpu time    1.0568: real time    1.0584
    MIXING:  cpu time    0.4849: real time    0.4848
    --------------------------------------------
      LOOP:  cpu time   15.2887: real time   15.2996

 eigenvalue-minimisations  :    48
 total energy-change (2. order) :-0.5629906E-02  (-0.1937721E-04)
 number of electron       5.9999998 magnetization       0.0006804
 augmentation part        0.4798665 magnetization      -0.0013058

 Broyden mixing:
  rms(total) = 0.39962E-01    rms(broyden)= 0.39605E-01
  rms(prec ) = 0.39679E-01
  weight for this iteration     100.00

 eigenvalues of (default mixing * dielectric matrix)
  average eigenvalue GAMMA=   0.4856
  2.4968  1.5115  1.5115  0.7031  0.7031  0.5705  0.5705  0.4543  0.4543  0.3835
  0.3835  0.2189  0.2189  0.1631  0.1631  0.1495  0.1167  0.0340  0.0507  0.0777
  0.0777  0.0847  0.0719

 Free energy of the ion-electron system (eV)
  ---------------------------------------------------
  alpha Z        PSCENC =         0.00253073
  Ewald energy   TEWEN  =       -24.51388801
  -Hartree energ DENC   =      -349.07281608
  -exchange      EXHF   =         0.00000000
  -V(xc)+E(xc)   XCENC  =        24.43892650
  PAW double counting   =       296.14527997     -295.35788613
  entropy T*S    EENTRO =        -0.07702087
  eigenvalues    EBANDS =       -84.00604300
  atomic energy  EATOM  =       432.35423390
  Solvation  Ediel_sol  =         0.00000000
  ---------------------------------------------------
  free energy    TOTEN  =        -0.08668299 eV

  energy without entropy =       -0.00966212  energy(sigma->0) =       -0.04817255


--------------------------------------------------------------------------------------------------------




--------------------------------------- Iteration      1(  29)  ---------------------------------------


    POTLOK:  cpu time    8.7987: real time    8.8040
    SETDIJ:  cpu time    0.0600: real time    0.0607
    EDDIAG:  cpu time    1.1048: real time    1.1055
  RMM-DIIS:  cpu time    3.7534: real time    3.7552
    ORTHCH:  cpu time    0.0460: real time    0.0465
       DOS:  cpu time    0.0010: real time    0.0005
    CHARGE:  cpu time    1.0558: real time    1.0571
    MIXING:  cpu time    0.5089: real time    0.5092
    --------------------------------------------
      LOOP:  cpu time   15.3297: real time   15.3387

 eigenvalue-minimisations  :    48
 total energy-change (2. order) : 0.2428357E-02  (-0.8958908E-05)
 number of electron       5.9999998 magnetization       0.0006579
 augmentation part        0.4798837 magnetization       0.0046925

 Broyden mixing:
  rms(total) = 0.10357E-01    rms(broyden)= 0.94680E-02
  rms(prec ) = 0.95139E-02
  weight for this iteration     100.00

 eigenvalues of (default mixing * dielectric matrix)
  average eigenvalue GAMMA=   0.5088
  2.4959  1.4953  1.4953  0.8210  0.8210  0.6937  0.6937  0.5849  0.4581  0.4581
  0.3835  0.3835  0.2189  0.2189  0.1631  0.1631  0.1495  0.1167  0.0340  0.0847
  0.0777  0.0777  0.0719  0.0507

 Free energy of the ion-electron system (eV)
  ---------------------------------------------------
  alpha Z        PSCENC =         0.00253073
  Ewald energy   TEWEN  =       -24.51388801
  -Hartree energ DENC   =      -349.06755189
  -exchange      EXHF   =         0.00000000
  -V(xc)+E(xc)   XCENC  =        24.44049676
  PAW double counting   =       296.13735262     -295.34987311
  entropy T*S    EENTRO =        -0.07712566
  eigenvalues    EBANDS =       -84.01042997
  atomic energy  EATOM  =       432.35423390
  Solvation  Ediel_sol  =         0.00000000
  ---------------------------------------------------
  free energy    TOTEN  =        -0.08425463 eV

  energy without entropy =       -0.00712897  energy(sigma->0) =       -0.04569180


--------------------------------------------------------------------------------------------------------




--------------------------------------- Iteration      1(  30)  ---------------------------------------


    POTLOK:  cpu time    8.7897: real time    8.7966
    SETDIJ:  cpu time    0.0630: real time    0.0631
    EDDIAG:  cpu time    1.1048: real time    1.1056
  RMM-DIIS:  cpu time    3.7454: real time    3.7476
    ORTHCH:  cpu time    0.0470: real time    0.0464
       DOS:  cpu time    0.0000: real time    0.0006
    CHARGE:  cpu time    1.0518: real time    1.0523
    MIXING:  cpu time    0.5429: real time    0.5433
    --------------------------------------------
      LOOP:  cpu time   15.3437: real time   15.3555

 eigenvalue-minimisations  :    48
 total energy-change (2. order) :-0.4373276E-02  (-0.8144569E-05)
 number of electron       5.9999998 magnetization       0.0006000
 augmentation part        0.4798906 magnetization      -0.0064787

 Broyden mixing:
  rms(total) = 0.12158E-01    rms(broyden)= 0.11862E-01
  rms(prec ) = 0.11878E-01
  weight for this iteration     100.00

 eigenvalues of (default mixing * dielectric matrix)
  average eigenvalue GAMMA=   0.5334
  2.4964  1.6723  1.6723  1.0564  0.6400  0.6400  0.6962  0.6962  0.6537  0.3835
  0.3835  0.4589  0.4589  0.2189  0.2189  0.1631  0.1631  0.1495  0.1167  0.0340
  0.0847  0.0777  0.0777  0.0719  0.0507

 Free energy of the ion-electron system (eV)
  ---------------------------------------------------
  alpha Z        PSCENC =         0.00253073
  Ewald energy   TEWEN  =       -24.51388801
  -Hartree energ DENC   =      -349.06696020
  -exchange      EXHF   =         0.00000000
  -V(xc)+E(xc)   XCENC  =        24.43661891
  PAW double counting   =       296.13927388     -295.35172200
  entropy T*S    EENTRO =        -0.07712255
  eigenvalues    EBANDS =       -84.01159257
  atomic energy  EATOM  =       432.35423390
  Solvation  Ediel_sol  =         0.00000000
  ---------------------------------------------------
  free energy    TOTEN  =        -0.08862791 eV

  energy without entropy =       -0.01150536  energy(sigma->0) =       -0.05006663


--------------------------------------------------------------------------------------------------------




--------------------------------------- Iteration      1(  31)  ---------------------------------------


    POTLOK:  cpu time    8.7977: real time    8.8027
    SETDIJ:  cpu time    0.0610: real time    0.0614
    EDDIAG:  cpu time    1.1008: real time    1.1021
  RMM-DIIS:  cpu time    3.7404: real time    3.7435
    ORTHCH:  cpu time    0.0470: real time    0.0466
       DOS:  cpu time    0.0010: real time    0.0005
    CHARGE:  cpu time    1.0578: real time    1.0583
    MIXING:  cpu time    0.5619: real time    0.5626
    --------------------------------------------
      LOOP:  cpu time   15.3687: real time   15.3775

 eigenvalue-minimisations  :    48
 total energy-change (2. order) :-0.8209974E-04  (-0.3103974E-05)
 number of electron       5.9999998 magnetization       0.0005585
 augmentation part        0.4798931 magnetization      -0.0034921

 Broyden mixing:
  rms(total) = 0.75571E-02    rms(broyden)= 0.75384E-02
  rms(prec ) = 0.75499E-02
  weight for this iteration     100.00

 eigenvalues of (default mixing * dielectric matrix)
  average eigenvalue GAMMA=   0.5485
  2.4973  1.7920  1.7920  1.2290  0.6669  0.6669  0.6888  0.6888  0.5631  0.5631
  0.3835  0.3835  0.4601  0.4601  0.2189  0.2189  0.1631  0.1631  0.1495  0.1167
  0.0340  0.0507  0.0777  0.0777  0.0847  0.0719

 Free energy of the ion-electron system (eV)
  ---------------------------------------------------
[...]
 total energy-change (2. order) :-0.2486704E-04  (-0.1576202E-07)
 number of electron       5.9999998 magnetization       0.0003112
 augmentation part        0.4799105 magnetization      -0.0000217

 Broyden mixing:
  rms(total) = 0.44662E-03    rms(broyden)= 0.44225E-03
  rms(prec ) = 0.44243E-03
  weight for this iteration     100.00

 eigenvalues of (default mixing * dielectric matrix)
  average eigenvalue GAMMA=   0.6776
  2.8913  2.4984  2.1651  1.6156  1.6156  0.8795  0.8795  0.8964  0.8964  0.7334
  0.7334  0.6312  0.6312  0.3835  0.3835  0.5877  0.5364  0.5300  0.5300  0.4586
  0.4586  0.2189  0.2189  0.1631  0.1631  0.1495  0.1167  0.0340  0.0507  0.0847
  0.0777  0.0777  0.0719

 Free energy of the ion-electron system (eV)
  ---------------------------------------------------
  alpha Z        PSCENC =         0.00253073
  Ewald energy   TEWEN  =       -24.51388801
  -Hartree energ DENC   =      -349.06391047
  -exchange      EXHF   =         0.00000000
  -V(xc)+E(xc)   XCENC  =        24.43560546
  PAW double counting   =       296.13498442     -295.34733679
  entropy T*S    EENTRO =        -0.07713115
  eigenvalues    EBANDS =       -84.01443665
  atomic energy  EATOM  =       432.35423390
  Solvation  Ediel_sol  =         0.00000000
  ---------------------------------------------------
  free energy    TOTEN  =        -0.08934857 eV

  energy without entropy =       -0.01221742  energy(sigma->0) =       -0.05078300


--------------------------------------------------------------------------------------------------------




--------------------------------------- Iteration      1(  39)  ---------------------------------------


    POTLOK:  cpu time    8.7857: real time    8.7913
    SETDIJ:  cpu time    0.0620: real time    0.0626
    EDDIAG:  cpu time    1.1048: real time    1.1052
  RMM-DIIS:  cpu time    3.4425: real time    3.4434
    ORTHCH:  cpu time    0.0460: real time    0.0466
       DOS:  cpu time    0.0010: real time    0.0005
    --------------------------------------------
      LOOP:  cpu time   13.4410: real time   13.4495

 eigenvalue-minimisations  :    40
 total energy-change (2. order) :-0.5809445E-06  (-0.6830993E-08)
 number of electron       5.9999998 magnetization       0.0003112
 augmentation part        0.4799105 magnetization      -0.0000217

 Free energy of the ion-electron system (eV)
  ---------------------------------------------------
  alpha Z        PSCENC =         0.00253073
  Ewald energy   TEWEN  =       -24.51388801
  -Hartree energ DENC   =      -349.06387571
  -exchange      EXHF   =         0.00000000
  -V(xc)+E(xc)   XCENC  =        24.43559698
  PAW double counting   =       296.13487583     -295.34722765
  entropy T*S    EENTRO =        -0.07713116
  eigenvalues    EBANDS =       -84.01446407
  atomic energy  EATOM  =       432.35423390
  Solvation  Ediel_sol  =         0.00000000
  ---------------------------------------------------
  free energy    TOTEN  =        -0.08934915 eV

  energy without entropy =       -0.01221799  energy(sigma->0) =       -0.05078357


--------------------------------------------------------------------------------------------------------




 average (electrostatic) potential at core
  the test charge radii are     0.6768
  (the norm of the test charge is              1.0000)
       1-128.8751
 
 
 
 E-fermi :  -9.0091     XC(G=0):  -0.0189     alpha+bet : -0.0032


 spin component 1

 k-point     1 :       0.0000    0.0000    0.0000
  band No.  band energies     occupation 
      1     -23.9586      1.00000
      2      -9.0243      0.66680
      3      -9.0243      0.66667
      4      -9.0243      0.66662
      5      -0.2001      0.00000
      6       0.0287      0.00000
      7       0.1527      0.00000
      8       0.1531      0.00000
      9       0.1533      0.00000
     10       0.1741      0.00000
     11       0.1743      0.00000
     12       0.2225      0.00000

 spin component 2

 k-point     1 :       0.0000    0.0000    0.0000
  band No.  band energies     occupation 
      1     -23.9586      1.00000
      2      -9.0243      0.66671
      3      -9.0243      0.66667
      4      -9.0243      0.66652
      5      -0.1590      0.00000
      6       0.0201      0.00000
      7       0.1605      0.00000
      8       0.1609      0.00000
      9       0.1678      0.00000
     10       0.1680      0.00000
     11       0.1682      0.00000
     12       0.2430      0.00000


--------------------------------------------------------------------------------------------------------


 soft charge-density along one line, spin component           1
         0         1         2         3         4         5         6         7         8         9
 total charge-density along one line
 
 soft charge-density along one line, spin component           2
         0         1         2         3         4         5         6         7         8         9
 total charge-density along one line
 
 pseudopotential strength for first ion, spin component:           1
 33.716  34.771  39.132   0.000   0.000  -0.000   0.000   0.000
 34.771  35.859  40.320   0.000   0.000  -0.000   0.000   0.000
 39.132  40.320  31.925   0.000   0.000  -0.000   0.000   0.000
  0.000   0.000   0.000  -7.020   0.000  -0.000  -7.900   0.000
  0.000   0.000   0.000   0.000  -7.020  -0.000   0.000  -7.900
 -0.000  -0.000  -0.000  -0.000  -0.000  -7.020  -0.000  -0.000
  0.000   0.000   0.000  -7.900   0.000  -0.000  -8.876   0.000
  0.000   0.000   0.000   0.000  -7.900  -0.000   0.000  -8.876
 -0.000  -0.000  -0.000  -0.000  -0.000  -7.900  -0.000  -0.000
 -0.000  -0.000  -0.000  -2.072  -0.000   0.000  -3.365  -0.000
 -0.000  -0.000  -0.000  -0.000  -2.072   0.000  -0.000  -3.365
  0.000   0.000   0.000   0.000   0.000  -2.072   0.000   0.000
  0.000   0.000   0.000   0.000  -0.000  -0.000   0.000  -0.000
 -0.000  -0.000   0.000  -0.000  -0.000  -0.000  -0.000  -0.000
 -0.000  -0.000   0.000  -0.000   0.000   0.000  -0.000   0.000
  0.000   0.000  -0.000  -0.000   0.000  -0.000  -0.000   0.000
  0.000   0.000   0.000  -0.000  -0.000  -0.000  -0.000  -0.000
  0.000   0.000  -0.000  -0.000   0.000   0.000  -0.000   0.000
 -0.000  -0.000   0.000   0.000   0.000   0.000   0.000   0.000
 -0.000  -0.000   0.000   0.000  -0.000  -0.000   0.000  -0.000
  0.000   0.000  -0.000   0.000  -0.000   0.000   0.000  -0.000
  0.000   0.000  -0.000   0.000   0.000   0.000   0.000   0.000
 pseudopotential strength for first ion, spin component:           2
 33.716  34.771  39.132   0.000   0.000  -0.000   0.000   0.000
 34.771  35.859  40.320   0.000   0.000  -0.000   0.000   0.000
 39.132  40.320  31.925   0.000   0.000  -0.000   0.000   0.000
  0.000   0.000   0.000  -7.020   0.000  -0.000  -7.900   0.000
  0.000   0.000   0.000   0.000  -7.020  -0.000   0.000  -7.900
 -0.000  -0.000  -0.000  -0.000  -0.000  -7.020  -0.000  -0.000
  0.000   0.000   0.000  -7.900   0.000  -0.000  -8.876   0.000
  0.000   0.000   0.000   0.000  -7.900  -0.000   0.000  -8.876
 -0.000  -0.000  -0.000  -0.000  -0.000  -7.900  -0.000  -0.000
 -0.000  -0.000  -0.000  -2.072  -0.000   0.000  -3.365  -0.000
 -0.000  -0.000  -0.000  -0.000  -2.072   0.000  -0.000  -3.365
  0.000   0.000   0.000   0.000   0.000  -2.072   0.000   0.000
  0.000   0.000  -0.000   0.000  -0.000  -0.000   0.000  -0.000
 -0.000  -0.000   0.000  -0.000  -0.000  -0.000  -0.000  -0.000
  0.000   0.000  -0.000  -0.000   0.000   0.000  -0.000   0.000
  0.000   0.000  -0.000  -0.000   0.000  -0.000  -0.000   0.000
  0.000   0.000  -0.000  -0.000  -0.000  -0.000  -0.000  -0.000
  0.000   0.000   0.000  -0.000   0.000   0.000  -0.000   0.000
 -0.000  -0.000   0.000   0.000   0.000   0.000   0.000   0.000
  0.000   0.000  -0.000   0.000  -0.000  -0.000   0.000  -0.000
  0.000   0.000  -0.000   0.000  -0.000   0.000   0.000  -0.000
  0.000   0.000   0.000   0.000   0.000   0.000   0.000   0.000
 total augmentation occupancy for first ion, spin component:           1
  1.704   0.140  -0.002   0.000   0.000   0.000  -0.000  -0.000  -0.000  -0.000  -0.000  -0.000  -0.000   0.000  -0.000  -0.000
  0.140   0.011  -0.000   0.000   0.000  -0.000   0.000  -0.000  -0.000   0.000  -0.000  -0.000  -0.000   0.000  -0.000  -0.000
 -0.002  -0.000   0.000  -0.000  -0.000  -0.000   0.000   0.000  -0.000   0.000   0.000  -0.000   0.000  -0.000   0.000   0.000
  0.000   0.000  -0.000   0.041  -0.000  -0.000   0.171  -0.000  -0.000   0.003  -0.000  -0.000  -0.000  -0.000  -0.000  -0.000
  0.000   0.000  -0.000  -0.000   0.042  -0.000   0.000   0.171  -0.000  -0.000   0.003  -0.000  -0.000  -0.000  -0.000  -0.000
  0.000  -0.000  -0.000  -0.000  -0.000   0.042  -0.000  -0.000   0.171  -0.000  -0.000   0.003  -0.000  -0.000  -0.000   0.000
 -0.000   0.000   0.000   0.171   0.000  -0.000   0.703   0.000   0.000   0.014   0.000  -0.000  -0.000  -0.000  -0.000  -0.000
 -0.000  -0.000   0.000  -0.000   0.171  -0.000   0.000   0.703   0.000   0.000   0.014   0.000  -0.000  -0.000  -0.000  -0.000
 -0.000  -0.000  -0.000  -0.000  -0.000   0.171   0.000   0.000   0.703   0.000   0.000   0.014  -0.000  -0.000  -0.000   0.000
 -0.000   0.000   0.000   0.003  -0.000  -0.000   0.014   0.000   0.000   0.000   0.000   0.000  -0.000  -0.000  -0.000  -0.000
 -0.000  -0.000   0.000  -0.000   0.003  -0.000   0.000   0.014   0.000   0.000   0.000   0.000  -0.000  -0.000  -0.000  -0.000
 -0.000  -0.000  -0.000  -0.000  -0.000   0.003  -0.000   0.000   0.014   0.000   0.000   0.000  -0.000  -0.000  -0.000   0.000
 -0.000  -0.000   0.000  -0.000  -0.000  -0.000  -0.000  -0.000  -0.000  -0.000  -0.000  -0.000   0.000  -0.000  -0.000  -0.000
  0.000   0.000  -0.000  -0.000  -0.000  -0.000  -0.000  -0.000  -0.000  -0.000  -0.000  -0.000  -0.000   0.000   0.000   0.000
 -0.000  -0.000   0.000  -0.000  -0.000  -0.000  -0.000  -0.000  -0.000  -0.000  -0.000  -0.000  -0.000   0.000   0.000   0.000
 -0.000  -0.000   0.000  -0.000  -0.000   0.000  -0.000  -0.000   0.000  -0.000  -0.000   0.000  -0.000   0.000   0.000   0.000
 -0.000  -0.000   0.000  -0.000   0.000   0.000  -0.000   0.000   0.000  -0.000   0.000   0.000  -0.000  -0.000   0.000   0.000
  0.000   0.000  -0.000   0.000  -0.000  -0.000   0.000  -0.000  -0.000   0.000  -0.000  -0.000  -0.000   0.000   0.000  -0.000
 -0.000  -0.000   0.000  -0.000  -0.000  -0.000  -0.000  -0.000  -0.000  -0.000  -0.000  -0.000   0.000   0.000   0.000   0.000
 -0.000  -0.000   0.000  -0.000   0.000   0.000  -0.000   0.000   0.000  -0.000   0.000   0.000   0.000  -0.000  -0.000  -0.000
 -0.000  -0.000   0.000  -0.000   0.000   0.000  -0.000   0.000   0.000  -0.000   0.000   0.000  -0.000   0.000   0.000   0.000
 -0.000  -0.000   0.000  -0.000   0.000  -0.000  -0.000   0.000  -0.000  -0.000   0.000  -0.000   0.000   0.000   0.000   0.000
 total augmentation occupancy for first ion, spin component:           2
 -0.000   0.000   0.000  -0.000  -0.000   0.000   0.000   0.000   0.000  -0.000  -0.000   0.000   0.000  -0.000  -0.000  -0.000
  0.000   0.000  -0.000  -0.000  -0.000  -0.000  -0.000  -0.000  -0.000  -0.000  -0.000  -0.000   0.000  -0.000  -0.000  -0.000
  0.000  -0.000  -0.000   0.000   0.000   0.000  -0.000   0.000   0.000   0.000   0.000   0.000  -0.000   0.000   0.000   0.000
 -0.000  -0.000   0.000   0.000  -0.000   0.000   0.000  -0.000   0.000   0.000  -0.000   0.000   0.000   0.000  -0.000   0.000
 -0.000  -0.000   0.000  -0.000  -0.000   0.000  -0.000  -0.000  -0.000  -0.000  -0.000   0.000  -0.000   0.000   0.000   0.000
  0.000  -0.000   0.000   0.000   0.000   0.000   0.000   0.000   0.000   0.000  -0.000   0.000  -0.000   0.000  -0.000   0.000
  0.000  -0.000  -0.000   0.000  -0.000   0.000   0.000  -0.000   0.000   0.000  -0.000   0.000   0.000   0.000  -0.000   0.000
  0.000  -0.000   0.000  -0.000  -0.000   0.000  -0.000  -0.000  -0.000  -0.000  -0.000   0.000  -0.000   0.000   0.000   0.000
  0.000  -0.000   0.000   0.000  -0.000   0.000   0.000  -0.000   0.000   0.000  -0.000   0.000  -0.000   0.000  -0.000   0.000
 -0.000  -0.000   0.000   0.000  -0.000   0.000   0.000  -0.000   0.000   0.000  -0.000   0.000   0.000   0.000  -0.000   0.000
 -0.000  -0.000   0.000  -0.000  -0.000  -0.000  -0.000  -0.000  -0.000  -0.000  -0.000  -0.000  -0.000   0.000   0.000   0.000
  0.000  -0.000   0.000   0.000   0.000   0.000   0.000   0.000   0.000   0.000  -0.000   0.000  -0.000   0.000  -0.000   0.000
  0.000   0.000  -0.000   0.000  -0.000  -0.000   0.000  -0.000  -0.000   0.000  -0.000  -0.000  -0.000   0.000  -0.000  -0.000
 -0.000  -0.000   0.000   0.000   0.000   0.000   0.000   0.000   0.000   0.000   0.000   0.000   0.000  -0.000  -0.000  -0.000
 -0.000  -0.000   0.000  -0.000   0.000  -0.000  -0.000   0.000  -0.000  -0.000   0.000  -0.000  -0.000  -0.000   0.000   0.000
 -0.000  -0.000   0.000   0.000   0.000   0.000   0.000   0.000   0.000   0.000   0.000   0.000  -0.000  -0.000   0.000   0.000
 -0.000  -0.000   0.000  -0.000  -0.000   0.000  -0.000  -0.000   0.000  -0.000  -0.000   0.000  -0.000  -0.000   0.000   0.000
 -0.000  -0.000   0.000   0.000  -0.000   0.000   0.000  -0.000   0.000   0.000  -0.000   0.000   0.000  -0.000  -0.000   0.000
 -0.000  -0.000   0.000   0.000   0.000   0.000   0.000   0.000   0.000   0.000   0.000   0.000  -0.000  -0.000   0.000   0.000
  0.000   0.000  -0.000  -0.000   0.000   0.000  -0.000   0.000   0.000  -0.000   0.000   0.000  -0.000   0.000  -0.000  -0.000
 -0.000  -0.000   0.000   0.000   0.000   0.000   0.000   0.000   0.000   0.000   0.000   0.000  -0.000  -0.000   0.000   0.000
  0.000   0.000  -0.000  -0.000  -0.000   0.000  -0.000  -0.000   0.000  -0.000  -0.000   0.000  -0.000   0.000   0.000   0.000


------------------------ aborting loop because EDIFF is reached ----------------------------------------


    CHARGE:  cpu time    1.0558: real time    1.0562
    FORLOC:  cpu time    0.0870: real time    0.0869
    FORNL :  cpu time    1.8887: real time    1.8902
    STRESS:  cpu time    5.8611: real time    5.8628
    FORCOR:  cpu time    8.1488: real time    8.1508
    FORHAR:  cpu time    0.9639: real time    0.9640
    MIXING:  cpu time    0.8139: real time    0.8132
    OFIELD:  cpu time    0.0000: real time    0.0002

 ---------------------------------------------------------------------------------------------

         DFTD3 V3.0 Rev 1        
 IVDW         = 11
 DF pbe       
 parameters
 VDW_S6       =    1.0000
 VDW_S8       =    0.7220
 VDW_SR       =    1.2170
 rs18     =    1.0000
 alpha6   =   14.0000
 alpha8   =   16.0000
 k1-k3    =   16.0000    1.3333   -4.0000
 VDW_RADIUS   =   50.2022 A
 VDW_CNRADIUS =   21.1671 A
 Edisp (eV)   -0.00000

 E6    (eV) :    -0.0000
 E8    (eV) :    -0.0000
 % E8        :  0.41
    FORVDW:  cpu time    0.0120: real time    0.0157

  FORCE on cell =-STRESS in cart. coord.  units (eV):
  Direction    XX          YY          ZZ          XY          YZ          ZX
  --------------------------------------------------------------------------------------
  Alpha Z     0.00253     0.00253     0.00253
  Ewald      -8.17130    -8.17130    -8.17130     0.00000     0.00000    -0.00000
  Hartree   116.35466   116.35493   116.35491     0.00048     0.00006    -0.00025
  E(xc)     -28.65724   -28.65723   -28.65723    -0.00000    -0.00000     0.00000
  Local    -252.82645  -252.82762  -252.82751    -0.00178    -0.00021     0.00093
  n-local    28.83820    28.83820    28.83825     0.00009    -0.00006     0.00001
  augment    15.28482    15.28581    15.28566     0.00020    -0.00004    -0.00013
  Kinetic   129.11600   129.11665   129.11658     0.00095     0.00010    -0.00049
  Fock        0.00000     0.00000     0.00000     0.00000     0.00000     0.00000
  vdW        -0.00000    -0.00000    -0.00000     0.00000     0.00000     0.00000
  -------------------------------------------------------------------------------------
  Total      -0.05878    -0.05802    -0.05811    -0.00006    -0.00014     0.00008
  in kB      -0.00349    -0.00344    -0.00345    -0.00000    -0.00001     0.00000
  external pressure =       -0.00 kB  Pullay stress =        0.00 kB


 VOLUME and BASIS-vectors are now :
 -----------------------------------------------------------------------------
  energy-cutoff  :      520.00
  volume of cell :    27000.00
      direct lattice vectors                 reciprocal lattice vectors
    30.000000000  0.000000000  0.000000000     0.033333333  0.000000000  0.000000000
     0.000000000 30.000000000  0.000000000     0.000000000  0.033333333  0.000000000
     0.000000000  0.000000000 30.000000000     0.000000000  0.000000000  0.033333333

  length of vectors
    30.000000000 30.000000000 30.000000000     0.033333333  0.033333333  0.033333333


 FORCES acting on ions
    electron-ion (+dipol)            ewald-force                    non-local-force                 convergence-correction
 -----------------------------------------------------------------------------------------------
   0.205E-04 -.138E-03 -.275E-03   -.292E-17 -.614E-19 0.159E-17   0.456E-04 0.858E-03 -.499E-04   0.238E-04 -.220E-05 0.399E-04
 -----------------------------------------------------------------------------------------------
   0.205E-04 -.138E-03 -.275E-03   -.292E-17 -.614E-19 0.159E-17   0.456E-04 0.858E-03 -.499E-04   0.238E-04 -.220E-05 0.399E-04
 
 
 POSITION                                       TOTAL-FORCE (eV/Angst)
 -----------------------------------------------------------------------------------
     29.87094      5.79962      6.94230         0.000090      0.000718     -0.000285
 -----------------------------------------------------------------------------------
    total drift:                                0.000090      0.000718     -0.000285


--------------------------------------------------------------------------------------------------------



  FREE ENERGIE OF THE ION-ELECTRON SYSTEM (eV)
  ---------------------------------------------------
  free  energy   TOTEN  =        -0.08934920 eV

  energy  without entropy=       -0.01221804  energy(sigma->0) =       -0.05078362
 


--------------------------------------------------------------------------------------------------------


    POTLOK:  cpu time    8.8217: real time    8.8363


--------------------------------------------------------------------------------------------------------


 stress matrix after NEB project (eV)
     -0.05878     -0.00006      0.00008
     -0.00006     -0.05802     -0.00014
      0.00008     -0.00014     -0.05811
  FORCES: max atom, RMS     0.000777    0.000777
  FORCE total and by dimension    0.000777    0.000718
  Stress total and by dimension    0.100988    0.058785


--------------------------------------------------------------------------------------------------------


  
 reached required accuracy - stopping structural energy minimisation
     LOOP+:  cpu time  870.8606: real time 2329.6978
    4ORBIT:  cpu time    0.0000: real time    0.0000

 total amount of memory used by VASP MPI-rank0   753943. kBytes
=======================================================================

   base      :      30000. kBytes
   nonlr-proj:        428. kBytes
   fftplans  :     211127. kBytes
   grid      :     500706. kBytes
   one-center:         46. kBytes
   wavefun   :      11636. kBytes
 
  
  
 General timing and accounting informations for this job:
 ========================================================
  
                  Total CPU time used (sec):     1322.035
                            User time (sec):     1001.638
                          System time (sec):      320.397
                         Elapsed time (sec):     5579.615
  
                   Maximum memory used (kb):     2220064.
                   Average memory used (kb):           0.
  
                          Minor page faults:       383350
                          Major page faults:            0
                 Voluntary context switches:     53954480
