 vasp.5.4.4.18Apr17-6-g9f103f2a35 (build May 21 2019 18:55:53) complex          
  
 executed on           IFC19_impi date 2025.07.23  15:35:46
 running on   24 total cores
 distrk:  each k-point on   24 cores,    1 groups
 distr:  one band on NCORES_PER_BAND=   4 cores,    6 groups


--------------------------------------------------------------------------------------------------------


 INCAR:
 POTCAR:    PAW_PBE O_GW_new 19Mar2012            
 POTCAR:    PAW_PBE O_GW_new 19Mar2012            
   SHA256 =  c493eb4e480bc193c6922e0b8c73e7a108f48fca6e73afddd92a880a1c2b3374 O_
   COPYR  = (c) Copyright 19Mar2012 Georg Kresse                                
   COPYR  = This file is part of the software VASP. Any use, copying, and all ot
   COPYR  = If you do not have a valid VASP license, you may not use, copy or di
   VRHFIN =O: s2p4                                                              
   LEXCH  = PE                                                                  
   EATOM  =   432.3788 eV,   31.7789 Ry                                         
                                                                                
   TITEL  = PAW_PBE O_GW_new 19Mar2012                                          
   LULTRA =        F    use ultrasoft PP ?                                      
   IUNSCR =        1    unscreen: 0-lin 1-nonlin 2-no                           
   RPACOR =    0.800    partial core radius                                     
   POMASS =   16.000; ZVAL   =    6.000    mass and valenz                      
   RCORE  =    1.600    outmost cutoff radius                                   
   RWIGS  =    1.600; RWIGS  =    0.847    wigner-seitz radius (au A)           
   ENMAX  =  434.431; ENMIN  =  325.824 eV                                      
   ICORE  =        3    local potential                                         
   LCOR   =        T    correct aug charges                                     
   LPAW   =        T    paw PP                                                  
   EAUG   = 1139.609                                                            
   DEXC   =    0.000                                                            
   RMAX   =    1.629    core radius for proj-oper                               
   RAUG   =    1.300    factor for augmentation sphere                          
   RDEP   =    1.652    radius for radial grids                                 
   RDEPT  =    1.200    core radius for aug-charge                              
                                                                                
   Atomic configuration                                                         
    5 entries                                                                   
     n  l   j            E        occ.                                          
     1  0  0.50      -514.6923   2.0000                                         
     2  0  0.50       -23.9615   2.0000                                         
     2  1  0.50        -9.0305   4.0000                                         
     3  2  1.50        -9.5241   0.0000                                         
     4  3  2.50        -9.5241   0.0000                                         
   Description                                                                  
     l       E           TYP  RCUT    TYP  RCUT                                 
     0    -23.9615316     23  1.150                                             
     0    -25.3221142     23  1.150                                             
     0    244.9048680     23  1.300                                             
     1     -9.0304908     23  1.500                                             
     1     -6.9258396     23  1.500                                             
     1    122.4524340     23  1.500                                             
     2     13.6058260     23  1.500                                             
     2    190.4815640     23  1.600                                             
     3     54.4233040     23  1.400                                             
  local pseudopotential read in
  partial core-charges read in
  partial kinetic energy density read in
  kinetic energy density of atom read in
  atomic valenz-charges read in
  non local Contribution for L=           0  read in
    real space projection operators read in
  non local Contribution for L=           0  read in
    real space projection operators read in
  non local Contribution for L=           0  read in
    real space projection operators read in
  non local Contribution for L=           1  read in
    real space projection operators read in
  non local Contribution for L=           1  read in
    real space projection operators read in
  non local Contribution for L=           1  read in
    real space projection operators read in
  non local Contribution for L=           2  read in
    real space projection operators read in
  non local Contribution for L=           2  read in
    real space projection operators read in
    PAW grid and wavefunctions read in
 
   number of l-projection  operators is LMAX  =           8
   number of lm-projection operators is LMMAX =          22
 

 ----------------------------------------------------------------------------- 
|                                                                             |
|  ADVICE TO THIS USER RUNNING 'VASP/VAMP'   (HEAR YOUR MASTER'S VOICE ...):  |
|                                                                             |
|      You have a (more or less) 'small supercell' and for smaller cells      |
|      it is recommended  to use the reciprocal-space projection scheme!      |
|      The real space optimization is not  efficient for small cells and it   |
|      is also less accurate ...                                              |
|      Therefore set LREAL=.FALSE. in the  INCAR file                         |
|                                                                             |
 ----------------------------------------------------------------------------- 

 Optimization of the real space projectors (new method)

 maximal supplied QI-value         = 23.62
 optimisation between [QCUT,QGAM] = [ 11.57, 23.15] = [ 37.52,150.06] Ry 
 Optimized for a Real-space Cutoff    1.53 Angstroem

   l    n(q)    QCUT    max X(q) W(low)/X(q) W(high)/X(q)  e(spline) 
   0     11    11.575   116.464    0.19E-03    0.50E-03    0.68E-05
   0     11    11.575   116.329    0.18E-03    0.48E-03    0.66E-05
   0     11    11.575     0.942    0.91E-04    0.25E-03    0.30E-05
   1     10    11.575    68.203    0.23E-03    0.52E-03    0.69E-05
   1     10    11.575    60.250    0.22E-03    0.51E-03    0.68E-05
   1     10    11.575     2.381    0.21E-03    0.47E-03    0.62E-05
   2     10    11.575     2.237    0.20E-04    0.44E-04    0.41E-06
   2     10    11.575     2.486    0.52E-04    0.84E-04    0.58E-06
  PAW_PBE O_GW_new 19Mar2012            :
 energy of atom  1       EATOM= -432.3788
 kinetic energy error for atom=    0.0246 (will be added to EATOM!!)
 
 
 POSCAR: C                                       
  positions in cartesian coordinates
  No initial velocities read in
 exchange correlation table for  LEXCH =        8
   RHO(1)=    0.500       N(1)  =     2000
   RHO(2)=  100.500       N(2)  =     4000

 VTST: version 3.2, (02/03/18)

 CHAIN: initializing optimizer
 
 OPT: Using VASP Conjugate-Gradient optimizer
 CHAIN: Read ICHAIN            0
 
 POSCAR: C                                       
  positions in cartesian coordinates
  No initial velocities read in
 


--------------------------------------------------------------------------------------------------------


 ion  position               nearest neighbor table
   1  0.489  0.485  0.600-
 

IMPORTANT INFORMATION: All symmetrisations will be switched off!
NOSYMM: (Re-)initialisation of all symmetry stuff for point group C_1.

 
 
 KPOINTS: mof                                     

Automatic generation of k-mesh.
Space group operators:
 irot       det(A)        alpha          n_x          n_y          n_z        tau_x        tau_y        tau_z
    1     1.000000     0.000001     1.000000     0.000000     0.000000     0.000000     0.000000     0.000000
 
 Subroutine IBZKPT returns following result:
 ===========================================
 
 Found      1 irreducible k-points:
 
 Following reciprocal coordinates:
            Coordinates               Weight
  0.000000  0.000000  0.000000      1.000000
 
 Following cartesian coordinates:
            Coordinates               Weight
  0.000000  0.000000  0.000000      1.000000
 


--------------------------------------------------------------------------------------------------------




 Dimension of arrays:
   k-points           NKPTS =      1   k-points in BZ     NKDIM =      1   number of bands    NBANDS=     12
   number of dos      NEDOS =    301   number of ions     NIONS =      1
   non local maximal  LDIM  =      8   non local SUM 2l+1 LMDIM =     22
   total plane-waves  NPLWV = 614400
   max r-space proj   IRMAX =   9495   max aug-charges    IRDMAX=   6890
   dimension x,y,z NGX =    80 NGY =   80 NGZ =   96
   dimension x,y,z NGXF=   160 NGYF=  160 NGZF=  192
   support grid    NGXF=   160 NGYF=  160 NGZF=  192
   ions per type =               1
   NGX,Y,Z   is equivalent  to a cutoff of  13.55, 13.55, 12.57 a.u.
   NGXF,Y,Z  is equivalent  to a cutoff of  27.10, 27.10, 25.14 a.u.

 SYSTEM =  Co–organic framework                  
 POSCAR =  C                                       

 Startparameter for this run:
   NWRITE =      2    write-flag & timer
   PREC   = accura    normal or accurate (medium, high low for compatibility)
   ISTART =      0    job   : 0-new  1-cont  2-samecut
   ICHARG =      2    charge: 1-file 2-atom 10-const
   ISPIN  =      2    spin polarized calculation?
   LNONCOLLINEAR =      F non collinear calculations
   LSORBIT =      F    spin-orbit coupling
   INIWAV =      1    electr: 0-lowe 1-rand  2-diag
   LASPH  =      F    aspherical Exc in radial PAW
   METAGGA=      F    non-selfconsistent MetaGGA calc.

 Electronic Relaxation 1
   ENCUT  =  520.0 eV  38.22 Ry    6.18 a.u.  18.25 18.25 23.61*2*pi/ulx,y,z
   ENINI  =  520.0     initial cutoff
   ENAUG  = 1139.6 eV  augmentation charge cutoff
   NELM   =    100;   NELMIN=  5; NELMDL=  0     # of ELM steps 
   EDIFF  = 0.1E-05   stopping-criterion for ELM
   LREAL  =      T    real-space projection
   NLSPLINE    = F    spline interpolate recip. space projectors
   LCOMPAT=      F    compatible to vasp.4.4
   GGA_COMPAT  = T    GGA compatible to vasp.4.4-vasp.4.6
   LMAXPAW     = -100 max onsite density
   LMAXMIX     =    2 max onsite mixed and CHGCAR
   VOSKOWN=      0    Vosko Wilk Nusair interpolation
   ROPT   =   -0.00025
 Ionic relaxation
   EDIFFG = -.5E-02   stopping-criterion for IOM
   NSW    =   1000    number of steps for IOM
   NBLOCK =      1;   KBLOCK =   1000    inner block; outer block 
   IBRION =      2    ionic relax: 0-MD 1-quasi-New 2-CG
   NFREE  =      1    steps in history (QN), initial steepest desc. (CG)
   ISIF   =      3    stress and relaxation
   IWAVPR =     11    prediction:  0-non 1-charg 2-wave 3-comb
   ISYM   =      0    0-nonsym 1-usesym 2-fastsym
   LCORR  =      T    Harris-Foulkes like correction to forces

   POTIM  = 0.5000    time-step for ionic-motion
   TEIN   =    0.0    initial temperature
   TEBEG  =    0.0;   TEEND  =   0.0 temperature during run
   SMASS  =  -3.00    Nose mass-parameter (am)
   estimated Nose-frequenzy (Omega)   =  0.10E-29 period in steps =****** mass=  -0.220E-26a.u.
   SCALEE = 1.0000    scale energy and forces
   NPACO  =    256;   APACO  = 16.0  distance and # of slots for P.C.
   PSTRESS=    0.0 pullay stress

  Mass of Ions in am
   POMASS =  16.00
  Ionic Valenz
   ZVAL   =   6.00
  Atomic Wigner-Seitz radii
   RWIGS  =  -1.00
  virtual crystal weights 
   VCA    =   1.00
   NELECT =       6.0000    total number of electrons
   NUPDOWN=      -1.0000    fix difference up-down

 DOS related values:
   EMIN   =  10.00;   EMAX   =-10.00  energy-range for DOS
   EFERMI =   0.00
   ISMEAR =     0;   SIGMA  =   0.05  broadening in eV -4-tet -1-fermi 0-gaus

 Electronic relaxation 2 (details)
   IALGO  =     68    algorithm
   LDIAG  =      T    sub-space diagonalisation (order eigenvalues)
   LSUBROT=      F    optimize rotation matrix (better conditioning)
   TURBO    =      0    0=normal 1=particle mesh
   IRESTART =      0    0=no restart 2=restart with 2 vectors
   NREBOOT  =      0    no. of reboots
   NMIN     =      0    reboot dimension
   EREF     =   0.00    reference energy to select bands
   IMIX   =      4    mixing-type and parameters
     AMIX     =   0.40;   BMIX     =  1.00
     AMIX_MAG =   1.60;   BMIX_MAG =  1.00
     AMIN     =   0.10
     WC   =   100.;   INIMIX=   1;  MIXPRE=   1;  MAXMIX= -45

 Intra band minimization:
   WEIMIN = 0.0010     energy-eigenvalue tresh-hold
   EBREAK =  0.21E-07  absolut break condition
   DEPER  =   0.30     relativ break condition  

   TIME   =   0.40     timestep for ELM

  volume/ion in A,a.u.               =     983.19      6634.87
  Fermi-wavevector in a.u.,A,eV,Ry     =   0.299167  0.565343  1.217732  0.089501
  Thomas-Fermi vector in A             =   1.166301
 
 Write flags
   LWAVE        =      F    write WAVECAR
   LDOWNSAMPLE  =      F    k-point downsampling of WAVECAR
   LCHARG       =      T    write CHGCAR
   LVTOT        =      F    write LOCPOT, total local potential
   LVHAR        =      F    write LOCPOT, Hartree potential only
   LELF         =      F    write electronic localiz. function (ELF)
   LORBIT       =      0    0 simple, 1 ext, 2 COOP (PROOUT), +10 PAW based schemes


 Dipole corrections
   LMONO  =      F    monopole corrections only (constant potential shift)
   LDIPOL =      F    correct potential (dipole corrections)
   IDIPOL =      0    1-x, 2-y, 3-z, 4-all directions 
   EPSILON=  1.0000000 bulk dielectric constant

 Exchange correlation treatment:
   GGA     =    --    GGA type
   LEXCH   =     8    internal setting for exchange type
   VOSKOWN=      0    Vosko Wilk Nusair interpolation
   LHFCALC =     F    Hartree Fock is set to
   LHFONE  =     F    Hartree Fock one center treatment
   AEXX    =    0.0000 exact exchange contribution

 Linear response parameters
   LEPSILON=     F    determine dielectric tensor
   LRPA    =     F    only Hartree local field effects (RPA)
   LNABLA  =     F    use nabla operator in PAW spheres
   LVEL    =     F    velocity operator in full k-point grid
   LINTERFAST=   F  fast interpolation
   KINTER  =     0    interpolate to denser k-point grid
   CSHIFT  =0.1000    complex shift for real part using Kramers Kronig
   OMEGAMAX=  -1.0    maximum frequency
   DEG_THRESHOLD= 0.2000000E-02 threshold for treating states as degnerate
   RTIME   =   -0.100 relaxation time in fs
  (WPLASMAI=    0.000 imaginary part of plasma frequency in eV, 0.658/RTIME)
   DFIELD  = 0.0000000 0.0000000 0.0000000 field for delta impulse in time
 
 Orbital magnetization related:
   ORBITALMAG=     F  switch on orbital magnetization
   LCHIMAG   =     F  perturbation theory with respect to B field
   DQ        =  0.001000  dq finite difference perturbation B field
   LLRAUG    =     F  two centre corrections for induced B field



--------------------------------------------------------------------------------------------------------


 conjugate gradient relaxation of ions
 charge density and potential will be updated during run
 spin polarized calculation
 RMM-DIIS sequential band-by-band and
  variant of blocked Davidson during initial phase
 perform sub-space diagonalisation
    before iterative eigenvector-optimisation
 modified Broyden-mixing scheme, WC =      100.0
 initial mixing is a Kerker type mixing with AMIX =  0.4000 and BMIX =      1.0000
 Hartree-type preconditioning will be used
 using additional bands            9
 real space projection scheme for non local part
 use partial core corrections
 calculate Harris-corrections to forces 
   (improved forces if not selfconsistent)
 use gradient corrections 
 use of overlap-Matrix (Vanderbilt PP)
 Gauss-broadening in eV      SIGMA  =   0.05


--------------------------------------------------------------------------------------------------------


  energy-cutoff  :      520.00
  volume of cell :      983.19
      direct lattice vectors                 reciprocal lattice vectors
     9.813846588  0.000000000  0.000000000     0.101896845  0.054495304  0.026738404
    -4.628217006  8.653969737  0.000000000     0.000000000  0.115553905 -0.026738377
    -4.470393332  2.678746180 11.576603077     0.000000000  0.000000000  0.086381125

  length of vectors
     9.813846588  9.813846588 12.695583344     0.118607113  0.118607107  0.086381125


 
 k-points in units of 2pi/SCALE and weight: mof                                     
   0.00000000  0.00000000  0.00000000       1.000
 
 k-points in reciprocal lattice and weights: mof                                     
   0.00000000  0.00000000  0.00000000       1.000
 
 position of ions in fractional coordinates (direct lattice) 
   0.48852700  0.48454300  0.59968400
 
 position of ions in cartesian coordinates  (Angst):
  -0.12906448  5.79962168  6.94230364
 


--------------------------------------------------------------------------------------------------------


 k-point  1 :   0.0000 0.0000 0.0000  plane waves:   26503

 maximum and minimum number of plane-waves per node :      6628     6622

 maximum number of plane-waves:     26503
 maximum index in each direction: 
   IXMAX=   18   IYMAX=   18   IZMAX=   23
   IXMIN=  -18   IYMIN=  -18   IZMIN=  -23


 real space projection operators:
  total allocation   :       1575.23 KBytes
  max/ min on nodes  :        396.17        390.50


 parallel 3D FFT for wavefunctions:
    minimum data exchange during FFTs selected (reduces bandwidth)
 parallel 3D FFT for charge:
    minimum data exchange during FFTs selected (reduces bandwidth)


 total amount of memory used by VASP MPI-rank0    70804. kBytes
=======================================================================

   base      :      30000. kBytes
   nonlr-proj:        646. kBytes
   fftplans  :      11740. kBytes
   grid      :      27947. kBytes
   one-center:         46. kBytes
   wavefun   :        425. kBytes
 
     INWAV:  cpu time    0.0000: real time    0.0001
 Broyden mixing: mesh for mixing (old mesh)
   NGX = 37   NGY = 37   NGZ = 47
  (NGX  =160   NGY  =160   NGZ  =192)
  gives a total of  64343 points

 initial charge density was supplied:
 charge density of overlapping atoms calculated
 number of electron       6.0000000 magnetization       0.0000000
 keeping initial charge density in first step


--------------------------------------------------------------------------------------------------------


 Maximum index for non-local projection operator         2300
 Maximum index for augmentation-charges          296 (set IRDMAX)


--------------------------------------------------------------------------------------------------------


 First call to EWALD:  gamma=   0.178
 Maximum number of real-space cells 3x 3x 2
 Maximum number of reciprocal cells 3x 3x 3

    FEWALD:  cpu time    0.0020: real time    0.0020


--------------------------------------- Iteration      1(   1)  ---------------------------------------


    POTLOK:  cpu time    0.3629: real time    0.3637
    SETDIJ:  cpu time    0.0080: real time    0.0079
     EDDAV:  cpu time    0.1900: real time    0.1901
       DOS:  cpu time    0.0000: real time    0.0003
    --------------------------------------------
      LOOP:  cpu time    0.5609: real time    0.5620

 eigenvalue-minimisations  :    60
 total energy-change (2. order) : 0.4777973E+02  (-0.1332211E+03)
 number of electron       6.0000000 magnetization       0.0000000
 augmentation part        6.0000000 magnetization       0.0000000

 Free energy of the ion-electron system (eV)
  ---------------------------------------------------
  alpha Z        PSCENC =         0.06949813
  Ewald energy   TEWEN  =       -73.30427287
  -Hartree energ DENC   =      -300.87936786
  -exchange      EXHF   =         0.00000000
  -V(xc)+E(xc)   XCENC  =        24.43532877
  PAW double counting   =       349.15150731     -348.34814446
  entropy T*S    EENTRO =        -0.00140470
  eigenvalues    EBANDS =       -35.69764890
  atomic energy  EATOM  =       432.35423390
  Solvation  Ediel_sol  =         0.00000000
  ---------------------------------------------------
  free energy    TOTEN  =        47.77972933 eV

  energy without entropy =       47.78113404  energy(sigma->0) =       47.78043168


--------------------------------------------------------------------------------------------------------




--------------------------------------- Iteration      1(   2)  ---------------------------------------


     EDDAV:  cpu time    0.2750: real time    0.2760
       DOS:  cpu time    0.0000: real time    0.0001
    --------------------------------------------
      LOOP:  cpu time    0.2750: real time    0.2761

 eigenvalue-minimisations  :    96
 total energy-change (2. order) :-0.4455024E+02  (-0.4454945E+02)
 number of electron       6.0000000 magnetization       0.0000000
 augmentation part        6.0000000 magnetization       0.0000000

 Free energy of the ion-electron system (eV)
  ---------------------------------------------------
  alpha Z        PSCENC =         0.06949813
  Ewald energy   TEWEN  =       -73.30427287
  -Hartree energ DENC   =      -300.87936786
  -exchange      EXHF   =         0.00000000
  -V(xc)+E(xc)   XCENC  =        24.43532877
  PAW double counting   =       349.15150731     -348.34814446
  entropy T*S    EENTRO =        -0.00000227
  eigenvalues    EBANDS =       -80.24929328
  atomic energy  EATOM  =       432.35423390
  Solvation  Ediel_sol  =         0.00000000
  ---------------------------------------------------
  free energy    TOTEN  =         3.22948738 eV

  energy without entropy =        3.22948966  energy(sigma->0) =        3.22948852


--------------------------------------------------------------------------------------------------------




--------------------------------------- Iteration      1(   3)  ---------------------------------------


     EDDAV:  cpu time    0.1570: real time    0.1570
       DOS:  cpu time    0.0010: real time    0.0005
    --------------------------------------------
      LOOP:  cpu time    0.1580: real time    0.1575

 eigenvalue-minimisations  :    48
 total energy-change (2. order) :-0.3242779E+01  (-0.3199430E+01)
 number of electron       6.0000000 magnetization       0.0000000
 augmentation part        6.0000000 magnetization       0.0000000

 Free energy of the ion-electron system (eV)
  ---------------------------------------------------
  alpha Z        PSCENC =         0.06949813
  Ewald energy   TEWEN  =       -73.30427287
  -Hartree energ DENC   =      -300.87936786
  -exchange      EXHF   =         0.00000000
  -V(xc)+E(xc)   XCENC  =        24.43532877
  PAW double counting   =       349.15150731     -348.34814446
  entropy T*S    EENTRO =        -0.06681354
  eigenvalues    EBANDS =       -83.42526126
  atomic energy  EATOM  =       432.35423390
  Solvation  Ediel_sol  =         0.00000000
  ---------------------------------------------------
  free energy    TOTEN  =        -0.01329187 eV

  energy without entropy =        0.05352168  energy(sigma->0) =        0.02011490


--------------------------------------------------------------------------------------------------------




--------------------------------------- Iteration      1(   4)  ---------------------------------------


     EDDAV:  cpu time    0.1570: real time    0.1573
       DOS:  cpu time    0.0010: real time    0.0011
    --------------------------------------------
      LOOP:  cpu time    0.1580: real time    0.1584

 eigenvalue-minimisations  :    48
 total energy-change (2. order) :-0.7389277E-01  (-0.6397557E-01)
 number of electron       6.0000000 magnetization       0.0000000
 augmentation part        6.0000000 magnetization       0.0000000

 Free energy of the ion-electron system (eV)
  ---------------------------------------------------
  alpha Z        PSCENC =         0.06949813
  Ewald energy   TEWEN  =       -73.30427287
  -Hartree energ DENC   =      -300.87936786
  -exchange      EXHF   =         0.00000000
  -V(xc)+E(xc)   XCENC  =        24.43532877
  PAW double counting   =       349.15150731     -348.34814446
  entropy T*S    EENTRO =        -0.07712695
  eigenvalues    EBANDS =       -83.48884063
  atomic energy  EATOM  =       432.35423390
  Solvation  Ediel_sol  =         0.00000000
  ---------------------------------------------------
  free energy    TOTEN  =        -0.08718464 eV

  energy without entropy =       -0.01005769  energy(sigma->0) =       -0.04862116


--------------------------------------------------------------------------------------------------------




--------------------------------------- Iteration      1(   5)  ---------------------------------------


     EDDAV:  cpu time    0.2170: real time    0.2162
       DOS:  cpu time    0.0000: real time    0.0001
    CHARGE:  cpu time    0.0380: real time    0.0378
    MIXING:  cpu time    0.0090: real time    0.0096
    --------------------------------------------
      LOOP:  cpu time    0.2640: real time    0.2638

 eigenvalue-minimisations  :    72
 total energy-change (2. order) :-0.2164134E-02  (-0.2160020E-02)
 number of electron       6.0000002 magnetization      -0.0001932
 augmentation part        0.4799043 magnetization       0.0003567

 Broyden mixing:
  rms(total) = 0.12892E+00    rms(broyden)= 0.12876E+00
  rms(prec ) = 0.12879E+00
  weight for this iteration     100.00

 Free energy of the ion-electron system (eV)
  ---------------------------------------------------
  alpha Z        PSCENC =         0.06949813
  Ewald energy   TEWEN  =       -73.30427287
  -Hartree energ DENC   =      -300.87936786
  -exchange      EXHF   =         0.00000000
  -V(xc)+E(xc)   XCENC  =        24.43532877
  PAW double counting   =       349.15150731     -348.34814446
  entropy T*S    EENTRO =        -0.07713115
  eigenvalues    EBANDS =       -83.49100055
  atomic energy  EATOM  =       432.35423390
  Solvation  Ediel_sol  =         0.00000000
  ---------------------------------------------------
  free energy    TOTEN  =        -0.08934877 eV

  energy without entropy =       -0.01221762  energy(sigma->0) =       -0.05078319


--------------------------------------------------------------------------------------------------------




--------------------------------------- Iteration      1(   6)  ---------------------------------------


    POTLOK:  cpu time    0.3599: real time    0.3597
    SETDIJ:  cpu time    0.0080: real time    0.0085
    EDDIAG:  cpu time    0.0370: real time    0.0370
  RMM-DIIS:  cpu time    0.1470: real time    0.1468
    ORTHCH:  cpu time    0.0020: real time    0.0017
       DOS:  cpu time    0.0000: real time    0.0001
    CHARGE:  cpu time    0.0360: real time    0.0363
    MIXING:  cpu time    0.0080: real time    0.0078
    --------------------------------------------
      LOOP:  cpu time    0.5979: real time    0.5978

 eigenvalue-minimisations  :    48
 total energy-change (2. order) : 0.3204978E-03  (-0.3198639E-04)
 number of electron       6.0000002 magnetization      -0.0259711
 augmentation part        0.4798669 magnetization       0.0008151

 Broyden mixing:
  rms(total) = 0.80185E-01    rms(broyden)= 0.80173E-01
  rms(prec ) = 0.80188E-01
  weight for this iteration     100.00

 eigenvalues of (default mixing * dielectric matrix)
  average eigenvalue GAMMA=   1.5844
  1.5844

 Free energy of the ion-electron system (eV)
  ---------------------------------------------------
  alpha Z        PSCENC =         0.06949813
  Ewald energy   TEWEN  =       -73.30427287
  -Hartree energ DENC   =      -300.85621260
  -exchange      EXHF   =         0.00000000
  -V(xc)+E(xc)   XCENC  =        24.43487364
  PAW double counting   =       327.11739584     -326.32074329
  entropy T*S    EENTRO =        -0.07712094
  eigenvalues    EBANDS =       -83.50668008
  atomic energy  EATOM  =       432.35423390
  Solvation  Ediel_sol  =         0.00000000
  ---------------------------------------------------
  free energy    TOTEN  =        -0.08902827 eV

  energy without entropy =       -0.01190733  energy(sigma->0) =       -0.05046780


--------------------------------------------------------------------------------------------------------




--------------------------------------- Iteration      1(   7)  ---------------------------------------


    POTLOK:  cpu time    0.3599: real time    0.3598
    SETDIJ:  cpu time    0.0070: real time    0.0075
    EDDIAG:  cpu time    0.0370: real time    0.0366
  RMM-DIIS:  cpu time    0.1600: real time    0.1603
    ORTHCH:  cpu time    0.0010: real time    0.0010
       DOS:  cpu time    0.0000: real time    0.0001
    CHARGE:  cpu time    0.0370: real time    0.0367
    MIXING:  cpu time    0.0080: real time    0.0078
    --------------------------------------------
      LOOP:  cpu time    0.6099: real time    0.6098

 eigenvalue-minimisations  :    54
 total energy-change (2. order) :-0.5730258E-01  (-0.5812315E-03)
 number of electron       6.0000002 magnetization       0.0009099
 augmentation part        0.4820773 magnetization       1.5752242

 Broyden mixing:
  rms(total) = 0.12175E+01    rms(broyden)= 0.12169E+01
  rms(prec ) = 0.12182E+01
  weight for this iteration     100.00

 eigenvalues of (default mixing * dielectric matrix)
  average eigenvalue GAMMA=   1.2603
  2.4818  0.0387

 Free energy of the ion-electron system (eV)
  ---------------------------------------------------
  alpha Z        PSCENC =         0.06949813
  Ewald energy   TEWEN  =       -73.30427287
  -Hartree energ DENC   =      -300.84336375
  -exchange      EXHF   =         0.00000000
  -V(xc)+E(xc)   XCENC  =        24.44458359
  PAW double counting   =       300.39475710     -299.60597416
  entropy T*S    EENTRO =        -0.03802630
  eigenvalues    EBANDS =       -83.61776650
  atomic energy  EATOM  =       432.35423390
  Solvation  Ediel_sol  =         0.00000000
  ---------------------------------------------------
  free energy    TOTEN  =        -0.14633085 eV

  energy without entropy =       -0.10830455  energy(sigma->0) =       -0.12731770


--------------------------------------------------------------------------------------------------------




--------------------------------------- Iteration      1(   8)  ---------------------------------------


    POTLOK:  cpu time    0.3559: real time    0.3562
    SETDIJ:  cpu time    0.0070: real time    0.0072
    EDDIAG:  cpu time    0.0370: real time    0.0367
  RMM-DIIS:  cpu time    0.1500: real time    0.1498
    ORTHCH:  cpu time    0.0000: real time    0.0010
       DOS:  cpu time    0.0010: real time    0.0001
    CHARGE:  cpu time    0.0350: real time    0.0359
    MIXING:  cpu time    0.0080: real time    0.0080
    --------------------------------------------
      LOOP:  cpu time    0.5949: real time    0.5949

 eigenvalue-minimisations  :    51
 total energy-change (2. order) : 0.1034923E+00  (-0.5680356E-03)
 number of electron       6.0000002 magnetization       0.0009816
 augmentation part        0.4802654 magnetization       0.0299549

 Broyden mixing:
  rms(total) = 0.17779E+00    rms(broyden)= 0.17694E+00
  rms(prec ) = 0.17861E+00
  weight for this iteration     100.00

 eigenvalues of (default mixing * dielectric matrix)
  average eigenvalue GAMMA=   0.8488
  2.4879  0.0380  0.0206

 Free energy of the ion-electron system (eV)
  ---------------------------------------------------
  alpha Z        PSCENC =         0.06949813
  Ewald energy   TEWEN  =       -73.30427287
  -Hartree energ DENC   =      -300.83405313
  -exchange      EXHF   =         0.00000000
  -V(xc)+E(xc)   XCENC  =        24.47077592
  PAW double counting   =       296.22429427     -295.43694568
  entropy T*S    EENTRO =        -0.07498760
  eigenvalues    EBANDS =       -83.51138149
  atomic energy  EATOM  =       432.35423390
  Solvation  Ediel_sol  =         0.00000000
  ---------------------------------------------------
  free energy    TOTEN  =        -0.04283855 eV

  energy without entropy =        0.03214905  energy(sigma->0) =       -0.00534475


--------------------------------------------------------------------------------------------------------




--------------------------------------- Iteration      1(   9)  ---------------------------------------


    POTLOK:  cpu time    0.3569: real time    0.3566
    SETDIJ:  cpu time    0.0070: real time    0.0074
    EDDIAG:  cpu time    0.0360: real time    0.0367
  RMM-DIIS:  cpu time    0.1410: real time    0.1411
    ORTHCH:  cpu time    0.0010: real time    0.0010
       DOS:  cpu time    0.0000: real time    0.0001
    CHARGE:  cpu time    0.0370: real time    0.0362
    MIXING:  cpu time    0.0080: real time    0.0081
    --------------------------------------------
      LOOP:  cpu time    0.5859: real time    0.5872

 eigenvalue-minimisations  :    48
 total energy-change (2. order) :-0.6583720E-02  (-0.6551367E-04)
 number of electron       6.0000002 magnetization       0.0017884
 augmentation part        0.4803502 magnetization      -0.0091891

 Broyden mixing:
  rms(total) = 0.19549E+00    rms(broyden)= 0.19541E+00
  rms(prec ) = 0.19649E+00
  weight for this iteration     100.00

 eigenvalues of (default mixing * dielectric matrix)
  average eigenvalue GAMMA=   0.6508
  2.4930  0.0423  0.0450  0.0228

 Free energy of the ion-electron system (eV)
  ---------------------------------------------------
  alpha Z        PSCENC =         0.06949813
  Ewald energy   TEWEN  =       -73.30427287
  -Hartree energ DENC   =      -300.83428302
  -exchange      EXHF   =         0.00000000
  -V(xc)+E(xc)   XCENC  =        24.46880219
  PAW double counting   =       296.22569469     -295.43834350
  entropy T*S    EENTRO =        -0.07442948
  eigenvalues    EBANDS =       -83.51632231
  atomic energy  EATOM  =       432.35423390
  Solvation  Ediel_sol  =         0.00000000
  ---------------------------------------------------
  free energy    TOTEN  =        -0.04942227 eV

  energy without entropy =        0.02500721  energy(sigma->0) =       -0.01220753


--------------------------------------------------------------------------------------------------------




--------------------------------------- Iteration      1(  10)  ---------------------------------------


    POTLOK:  cpu time    0.3559: real time    0.3561
    SETDIJ:  cpu time    0.0070: real time    0.0074
    EDDIAG:  cpu time    0.0370: real time    0.0368
  RMM-DIIS:  cpu time    0.1430: real time    0.1432
    ORTHCH:  cpu time    0.0010: real time    0.0010
       DOS:  cpu time    0.0000: real time    0.0001
    CHARGE:  cpu time    0.0370: real time    0.0356
    MIXING:  cpu time    0.0090: real time    0.0090
    --------------------------------------------
      LOOP:  cpu time    0.5899: real time    0.5891

 eigenvalue-minimisations  :    48
 total energy-change (2. order) : 0.1860078E-01  (-0.2824164E-04)
 number of electron       6.0000002 magnetization       0.0017209
 augmentation part        0.4803906 magnetization      -0.0784411

 Broyden mixing:
  rms(total) = 0.13884E+00    rms(broyden)= 0.13827E+00
  rms(prec ) = 0.13928E+00
  weight for this iteration     100.00

 eigenvalues of (default mixing * dielectric matrix)
  average eigenvalue GAMMA=   0.5227
  2.4931  0.0465  0.0449  0.0226  0.0064

 Free energy of the ion-electron system (eV)
  ---------------------------------------------------
  alpha Z        PSCENC =         0.06949813
  Ewald energy   TEWEN  =       -73.30427287
  -Hartree energ DENC   =      -300.83521737
  -exchange      EXHF   =         0.00000000
  -V(xc)+E(xc)   XCENC  =        24.48311115
  PAW double counting   =       296.14860849     -295.36125226
  entropy T*S    EENTRO =        -0.07598416
  eigenvalues    EBANDS =       -83.50954649
  atomic energy  EATOM  =       432.35423390
  Solvation  Ediel_sol  =         0.00000000
  ---------------------------------------------------
  free energy    TOTEN  =        -0.03082149 eV

  energy without entropy =        0.04516268  energy(sigma->0) =        0.00717060


--------------------------------------------------------------------------------------------------------




--------------------------------------- Iteration      1(  11)  ---------------------------------------


    POTLOK:  cpu time    0.3559: real time    0.3568
    SETDIJ:  cpu time    0.0070: real time    0.0073
    EDDIAG:  cpu time    0.0370: real time    0.0368
  RMM-DIIS:  cpu time    0.1410: real time    0.1420
    ORTHCH:  cpu time    0.0010: real time    0.0010
       DOS:  cpu time    0.0000: real time    0.0001
    CHARGE:  cpu time    0.0360: real time    0.0362
    MIXING:  cpu time    0.0080: real time    0.0086
    --------------------------------------------
      LOOP:  cpu time    0.5859: real time    0.5886

 eigenvalue-minimisations  :    48
 total energy-change (2. order) :-0.3212704E-01  (-0.4292656E-04)
 number of electron       6.0000002 magnetization       0.0024472
 augmentation part        0.4803231 magnetization      -0.0947812

 Broyden mixing:
  rms(total) = 0.20487E+00    rms(broyden)= 0.20463E+00
  rms(prec ) = 0.20526E+00
  weight for this iteration     100.00

 eigenvalues of (default mixing * dielectric matrix)
  average eigenvalue GAMMA=   0.4615
  2.4952  0.0874  0.0874  0.0480  0.0242  0.0268

 Free energy of the ion-electron system (eV)
  ---------------------------------------------------
  alpha Z        PSCENC =         0.06949813
  Ewald energy   TEWEN  =       -73.30427287
  -Hartree energ DENC   =      -300.83723477
  -exchange      EXHF   =         0.00000000
  -V(xc)+E(xc)   XCENC  =        24.45811939
  PAW double counting   =       296.14468267     -295.35732017
  entropy T*S    EENTRO =        -0.07444192
  eigenvalues    EBANDS =       -83.51621287
  atomic energy  EATOM  =       432.35423390
  Solvation  Ediel_sol  =         0.00000000
  ---------------------------------------------------
  free energy    TOTEN  =        -0.06294853 eV

  energy without entropy =        0.01149339  energy(sigma->0) =       -0.02572757


--------------------------------------------------------------------------------------------------------




--------------------------------------- Iteration      1(  12)  ---------------------------------------


    POTLOK:  cpu time    0.3569: real time    0.3565
    SETDIJ:  cpu time    0.0070: real time    0.0075
    EDDIAG:  cpu time    0.0370: real time    0.0368
  RMM-DIIS:  cpu time    0.1440: real time    0.1429
    ORTHCH:  cpu time    0.0010: real time    0.0010
       DOS:  cpu time    0.0000: real time    0.0001
    CHARGE:  cpu time    0.0360: real time    0.0359
    MIXING:  cpu time    0.0090: real time    0.0088
    --------------------------------------------
      LOOP:  cpu time    0.5909: real time    0.5895

 eigenvalue-minimisations  :    48
 total energy-change (2. order) : 0.1902196E-01  (-0.3437726E-04)
 number of electron       6.0000002 magnetization       0.0019304
 augmentation part        0.4802960 magnetization      -0.1546408

 Broyden mixing:
  rms(total) = 0.14428E+00    rms(broyden)= 0.14350E+00
  rms(prec ) = 0.14423E+00
  weight for this iteration     100.00

 eigenvalues of (default mixing * dielectric matrix)
  average eigenvalue GAMMA=   0.4043
  2.4957  0.0914  0.0914  0.0508  0.0482  0.0237  0.0289

 Free energy of the ion-electron system (eV)
  ---------------------------------------------------
  alpha Z        PSCENC =         0.06949813
  Ewald energy   TEWEN  =       -73.30427287
  -Hartree energ DENC   =      -300.84654743
  -exchange      EXHF   =         0.00000000
  -V(xc)+E(xc)   XCENC  =        24.47385151
  PAW double counting   =       296.11926549     -295.33187832
  entropy T*S    EENTRO =        -0.07644846
  eigenvalues    EBANDS =       -83.50162850
  atomic energy  EATOM  =       432.35423390
  Solvation  Ediel_sol  =         0.00000000
  ---------------------------------------------------
  free energy    TOTEN  =        -0.04392657 eV

  energy without entropy =        0.03252190  energy(sigma->0) =       -0.00570234


--------------------------------------------------------------------------------------------------------




--------------------------------------- Iteration      1(  13)  ---------------------------------------


    POTLOK:  cpu time    0.3559: real time    0.3568
    SETDIJ:  cpu time    0.0070: real time    0.0074
    EDDIAG:  cpu time    0.0370: real time    0.0368
  RMM-DIIS:  cpu time    0.1430: real time    0.1435
    ORTHCH:  cpu time    0.0010: real time    0.0009
       DOS:  cpu time    0.0000: real time    0.0001
    CHARGE:  cpu time    0.0370: real time    0.0361
    MIXING:  cpu time    0.0080: real time    0.0089
    --------------------------------------------
      LOOP:  cpu time    0.5889: real time    0.5906

 eigenvalue-minimisations  :    48
 total energy-change (2. order) :-0.3760367E-01  (-0.8654992E-04)
 number of electron       6.0000002 magnetization       0.0017656
 augmentation part        0.4801605 magnetization      -0.1027632

 Broyden mixing:
  rms(total) = 0.23078E+00    rms(broyden)= 0.22908E+00
  rms(prec ) = 0.22931E+00
  weight for this iteration     100.00

 eigenvalues of (default mixing * dielectric matrix)
  average eigenvalue GAMMA=   0.3814
  2.4990  0.1699  0.1699  0.0818  0.0485  0.0235  0.0293  0.0293

 Free energy of the ion-electron system (eV)
  ---------------------------------------------------
  alpha Z        PSCENC =         0.06949813
  Ewald energy   TEWEN  =       -73.30427287
  -Hartree energ DENC   =      -300.85981948
  -exchange      EXHF   =         0.00000000
  -V(xc)+E(xc)   XCENC  =        24.44484334
  PAW double counting   =       296.10019222     -295.31278828
  entropy T*S    EENTRO =        -0.07361097
  eigenvalues    EBANDS =       -83.49980622
  atomic energy  EATOM  =       432.35423390
  Solvation  Ediel_sol  =         0.00000000
  ---------------------------------------------------
  free energy    TOTEN  =        -0.08153024 eV

  energy without entropy =       -0.00791927  energy(sigma->0) =       -0.04472475


--------------------------------------------------------------------------------------------------------




--------------------------------------- Iteration      1(  14)  ---------------------------------------


    POTLOK:  cpu time    0.3569: real time    0.3557
    SETDIJ:  cpu time    0.0070: real time    0.0074
    EDDIAG:  cpu time    0.0370: real time    0.0368
  RMM-DIIS:  cpu time    0.1450: real time    0.1461
    ORTHCH:  cpu time    0.0010: real time    0.0010
       DOS:  cpu time    0.0000: real time    0.0001
    CHARGE:  cpu time    0.0370: real time    0.0362
    MIXING:  cpu time    0.0090: real time    0.0091
    --------------------------------------------
      LOOP:  cpu time    0.5929: real time    0.5922

 eigenvalue-minimisations  :    48
 total energy-change (2. order) : 0.7482666E-01  (-0.1984418E-03)
 number of electron       6.0000002 magnetization       0.0010136
 augmentation part        0.4802705 magnetization      -0.1153264

 Broyden mixing:
  rms(total) = 0.12955E+00    rms(broyden)= 0.12837E+00
  rms(prec ) = 0.12960E+00
  weight for this iteration     100.00

 eigenvalues of (default mixing * dielectric matrix)
  average eigenvalue GAMMA=   0.3393
  2.4990  0.1694  0.1694  0.0820  0.0486  0.0235  0.0290  0.0290  0.0036

 Free energy of the ion-electron system (eV)
  ---------------------------------------------------
  alpha Z        PSCENC =         0.06949813
  Ewald energy   TEWEN  =       -73.30427287
  -Hartree energ DENC   =      -300.86703510
  -exchange      EXHF   =         0.00000000
  -V(xc)+E(xc)   XCENC  =        24.50866291
  PAW double counting   =       296.08016092     -295.29276275
  entropy T*S    EENTRO =        -0.07640968
  eigenvalues    EBANDS =       -83.47877905
  atomic energy  EATOM  =       432.35423390
  Solvation  Ediel_sol  =         0.00000000
  ---------------------------------------------------
  free energy    TOTEN  =        -0.00670358 eV

  energy without entropy =        0.06970610  energy(sigma->0) =        0.03150126


--------------------------------------------------------------------------------------------------------




--------------------------------------- Iteration      1(  15)  ---------------------------------------


    POTLOK:  cpu time    0.3559: real time    0.3567
    SETDIJ:  cpu time    0.0080: real time    0.0074
    EDDIAG:  cpu time    0.0360: real time    0.0368
  RMM-DIIS:  cpu time    0.1430: real time    0.1425
    ORTHCH:  cpu time    0.0010: real time    0.0010
       DOS:  cpu time    0.0000: real time    0.0001
    CHARGE:  cpu time    0.0360: real time    0.0360
    MIXING:  cpu time    0.0100: real time    0.0095
    --------------------------------------------
      LOOP:  cpu time    0.5899: real time    0.5899

 eigenvalue-minimisations  :    48
 total energy-change (2. order) :-0.6294053E-01  (-0.9041263E-04)
 number of electron       6.0000002 magnetization       0.0008883
 augmentation part        0.4800827 magnetization      -0.0427891

 Broyden mixing:
  rms(total) = 0.90555E-01    rms(broyden)= 0.89581E-01
  rms(prec ) = 0.91924E-01
  weight for this iteration     100.00

 eigenvalues of (default mixing * dielectric matrix)
  average eigenvalue GAMMA=   0.3128
  2.4990  0.1673  0.1673  0.0825  0.0393  0.0393  0.0485  0.0236  0.0305  0.0305

 Free energy of the ion-electron system (eV)
  ---------------------------------------------------
  alpha Z        PSCENC =         0.06949813
  Ewald energy   TEWEN  =       -73.30427287
  -Hartree energ DENC   =      -300.88527982
  -exchange      EXHF   =         0.00000000
  -V(xc)+E(xc)   XCENC  =        24.45457699
  PAW double counting   =       296.13812700     -295.35069882
  entropy T*S    EENTRO =        -0.07664999
  eigenvalues    EBANDS =       -83.46917863
  atomic energy  EATOM  =       432.35423390
  Solvation  Ediel_sol  =         0.00000000
  ---------------------------------------------------
  free energy    TOTEN  =        -0.06964411 eV

  energy without entropy =        0.00700588  energy(sigma->0) =       -0.03131912


--------------------------------------------------------------------------------------------------------




--------------------------------------- Iteration      1(  16)  ---------------------------------------


    POTLOK:  cpu time    0.3559: real time    0.3561
    SETDIJ:  cpu time    0.0070: real time    0.0074
    EDDIAG:  cpu time    0.0370: real time    0.0369
  RMM-DIIS:  cpu time    0.1430: real time    0.1432
    ORTHCH:  cpu time    0.0010: real time    0.0009
       DOS:  cpu time    0.0000: real time    0.0001
    CHARGE:  cpu time    0.0360: real time    0.0357
    MIXING:  cpu time    0.0100: real time    0.0096
    --------------------------------------------
      LOOP:  cpu time    0.5899: real time    0.5900

 eigenvalue-minimisations  :    48
 total energy-change (2. order) :-0.1382263E-01  (-0.4182836E-04)
 number of electron       6.0000002 magnetization       0.0001232
 augmentation part        0.4799902 magnetization      -0.0272317

 Broyden mixing:
  rms(total) = 0.18137E+00    rms(broyden)= 0.18076E+00
  rms(prec ) = 0.18151E+00
  weight for this iteration     100.00

 eigenvalues of (default mixing * dielectric matrix)
  average eigenvalue GAMMA=   0.3249
  2.5005  0.4092  0.1612  0.1612  0.0890  0.0890  0.0484  0.0236  0.0334  0.0296
  0.0285

 Free energy of the ion-electron system (eV)
  ---------------------------------------------------
  alpha Z        PSCENC =         0.06949813
  Ewald energy   TEWEN  =       -73.30427287
  -Hartree energ DENC   =      -300.88943084
  -exchange      EXHF   =         0.00000000
  -V(xc)+E(xc)   XCENC  =        24.44476220
  PAW double counting   =       296.14767933     -295.36023484
  entropy T*S    EENTRO =        -0.07480017
  eigenvalues    EBANDS =       -83.47090158
  atomic energy  EATOM  =       432.35423390
  Solvation  Ediel_sol  =         0.00000000
  ---------------------------------------------------
  free energy    TOTEN  =        -0.08346674 eV

  energy without entropy =       -0.00866657  energy(sigma->0) =       -0.04606665


--------------------------------------------------------------------------------------------------------




--------------------------------------- Iteration      1(  17)  ---------------------------------------


    POTLOK:  cpu time    0.3559: real time    0.3569
    SETDIJ:  cpu time    0.0080: real time    0.0076
    EDDIAG:  cpu time    0.0370: real time    0.0367
  RMM-DIIS:  cpu time    0.1430: real time    0.1421
    ORTHCH:  cpu time    0.0010: real time    0.0010
       DOS:  cpu time    0.0000: real time    0.0001
    CHARGE:  cpu time    0.0350: real time    0.0363
    MIXING:  cpu time    0.0100: real time    0.0098
    --------------------------------------------
      LOOP:  cpu time    0.5899: real time    0.5904

 eigenvalue-minimisations  :    48
 total energy-change (2. order) : 0.2939630E-01  (-0.7663870E-04)
 number of electron       6.0000002 magnetization       0.0006773
 augmentation part        0.4800075 magnetization       0.0543908

 Broyden mixing:
  rms(total) = 0.56629E-01    rms(broyden)= 0.53773E-01
  rms(prec ) = 0.54371E-01
  weight for this iteration     100.00

 eigenvalues of (default mixing * dielectric matrix)
  average eigenvalue GAMMA=   0.3201
  2.5005  0.4418  0.2634  0.1504  0.1504  0.0850  0.0850  0.0484  0.0236  0.0334
  0.0296  0.0291

 Free energy of the ion-electron system (eV)
  ---------------------------------------------------
  alpha Z        PSCENC =         0.06949813
  Ewald energy   TEWEN  =       -73.30427287
  -Hartree energ DENC   =      -300.90734672
  -exchange      EXHF   =         0.00000000
  -V(xc)+E(xc)   XCENC  =        24.46787479
  PAW double counting   =       296.19502770     -295.40755501
  entropy T*S    EENTRO =        -0.07701628
  eigenvalues    EBANDS =       -83.44451409
  atomic energy  EATOM  =       432.35423390
  Solvation  Ediel_sol  =         0.00000000
  ---------------------------------------------------
  free energy    TOTEN  =        -0.05407044 eV

  energy without entropy =        0.02294584  energy(sigma->0) =       -0.01556230


--------------------------------------------------------------------------------------------------------




--------------------------------------- Iteration      1(  18)  ---------------------------------------


    POTLOK:  cpu time    0.3559: real time    0.3562
    SETDIJ:  cpu time    0.0070: real time    0.0073
    EDDIAG:  cpu time    0.0370: real time    0.0368
  RMM-DIIS:  cpu time    0.1440: real time    0.1433
    ORTHCH:  cpu time    0.0000: real time    0.0010
       DOS:  cpu time    0.0010: real time    0.0001
    CHARGE:  cpu time    0.0360: real time    0.0362
    MIXING:  cpu time    0.0100: real time    0.0106
    --------------------------------------------
      LOOP:  cpu time    0.5909: real time    0.5914

 eigenvalue-minimisations  :    48
 total energy-change (2. order) :-0.3173870E-01  (-0.8197987E-04)
 number of electron       6.0000002 magnetization       0.0006845
 augmentation part        0.4798510 magnetization       0.0015003

 Broyden mixing:
  rms(total) = 0.45593E-01    rms(broyden)= 0.45067E-01
  rms(prec ) = 0.46514E-01
  weight for this iteration     100.00

 eigenvalues of (default mixing * dielectric matrix)
  average eigenvalue GAMMA=   0.3060
  2.5007  0.5374  0.2740  0.1529  0.1529  0.0856  0.0856  0.0484  0.0335  0.0236
  0.0296  0.0290  0.0244

 Free energy of the ion-electron system (eV)
  ---------------------------------------------------
  alpha Z        PSCENC =         0.06949813
  Ewald energy   TEWEN  =       -73.30427287
  -Hartree energ DENC   =      -300.90515450
  -exchange      EXHF   =         0.00000000
  -V(xc)+E(xc)   XCENC  =        24.44214141
  PAW double counting   =       296.20069003     -295.41319249
  entropy T*S    EENTRO =        -0.07699397
  eigenvalues    EBANDS =       -83.45275878
  atomic energy  EATOM  =       432.35423390
  Solvation  Ediel_sol  =         0.00000000
  ---------------------------------------------------
  free energy    TOTEN  =        -0.08580914 eV

  energy without entropy =       -0.00881517  energy(sigma->0) =       -0.04731216


--------------------------------------------------------------------------------------------------------




--------------------------------------- Iteration      1(  19)  ---------------------------------------


    POTLOK:  cpu time    0.3549: real time    0.3546
    SETDIJ:  cpu time    0.0070: real time    0.0074
    EDDIAG:  cpu time    0.0370: real time    0.0367
  RMM-DIIS:  cpu time    0.1410: real time    0.1409
    ORTHCH:  cpu time    0.0010: real time    0.0009
       DOS:  cpu time    0.0000: real time    0.0001
    CHARGE:  cpu time    0.0360: real time    0.0362
    MIXING:  cpu time    0.0110: real time    0.0105
    --------------------------------------------
      LOOP:  cpu time    0.5879: real time    0.5875

 eigenvalue-minimisations  :    48
 total energy-change (2. order) :-0.8165504E-03  (-0.1853903E-04)
 number of electron       6.0000002 magnetization       0.0015459
 augmentation part        0.4797899 magnetization       0.0012713

 Broyden mixing:
  rms(total) = 0.52706E-01    rms(broyden)= 0.52615E-01
  rms(prec ) = 0.53877E-01
  weight for this iteration     100.00

 eigenvalues of (default mixing * dielectric matrix)
  average eigenvalue GAMMA=   0.3415
  2.4995  0.7508  0.7508  0.1487  0.1487  0.1402  0.0842  0.0842  0.0484  0.0236
  0.0335  0.0296  0.0294  0.0095

 Free energy of the ion-electron system (eV)
  ---------------------------------------------------
  alpha Z        PSCENC =         0.06949813
  Ewald energy   TEWEN  =       -73.30427287
  -Hartree energ DENC   =      -300.90505254
  -exchange      EXHF   =         0.00000000
  -V(xc)+E(xc)   XCENC  =        24.44158427
  PAW double counting   =       296.20040527     -295.41290752
  entropy T*S    EENTRO =        -0.07694159
  eigenvalues    EBANDS =       -83.45317275
  atomic energy  EATOM  =       432.35423390
  Solvation  Ediel_sol  =         0.00000000
  ---------------------------------------------------
  free energy    TOTEN  =        -0.08662569 eV

  energy without entropy =       -0.00968411  energy(sigma->0) =       -0.04815490


--------------------------------------------------------------------------------------------------------




--------------------------------------- Iteration      1(  20)  ---------------------------------------


    POTLOK:  cpu time    0.3549: real time    0.3554
    SETDIJ:  cpu time    0.0080: real time    0.0073
    EDDIAG:  cpu time    0.0360: real time    0.0368
  RMM-DIIS:  cpu time    0.1430: real time    0.1426
    ORTHCH:  cpu time    0.0010: real time    0.0010
       DOS:  cpu time    0.0000: real time    0.0001
    CHARGE:  cpu time    0.0360: real time    0.0361
    MIXING:  cpu time    0.0110: real time    0.0111
    --------------------------------------------
      LOOP:  cpu time    0.5899: real time    0.5904

 eigenvalue-minimisations  :    48
 total energy-change (2. order) : 0.2362241E-02  (-0.6668867E-05)
 number of electron       6.0000002 magnetization       0.0002761
 augmentation part        0.4798165 magnetization      -0.0682440

 Broyden mixing:
  rms(total) = 0.66840E-01    rms(broyden)= 0.66777E-01
  rms(prec ) = 0.67235E-01
  weight for this iteration     100.00

 eigenvalues of (default mixing * dielectric matrix)
  average eigenvalue GAMMA=   0.3542
  2.4999  0.8319  0.8319  0.3468  0.1601  0.1499  0.1499  0.0847  0.0847  0.0484
  0.0236  0.0335  0.0296  0.0294  0.0096

 Free energy of the ion-electron system (eV)
  ---------------------------------------------------
  alpha Z        PSCENC =         0.06949813
  Ewald energy   TEWEN  =       -73.30427287
  -Hartree energ DENC   =      -300.89836232
  -exchange      EXHF   =         0.00000000
  -V(xc)+E(xc)   XCENC  =        24.44307303
  PAW double counting   =       296.18879158     -295.40128209
  entropy T*S    EENTRO =        -0.07696292
  eigenvalues    EBANDS =       -83.45897990
  atomic energy  EATOM  =       432.35423390
  Solvation  Ediel_sol  =         0.00000000
  ---------------------------------------------------
  free energy    TOTEN  =        -0.08426345 eV

  energy without entropy =       -0.00730054  energy(sigma->0) =       -0.04578200


--------------------------------------------------------------------------------------------------------




--------------------------------------- Iteration      1(  21)  ---------------------------------------


    POTLOK:  cpu time    0.3549: real time    0.3558
    SETDIJ:  cpu time    0.0080: real time    0.0075
    EDDIAG:  cpu time    0.0360: real time    0.0367
  RMM-DIIS:  cpu time    0.1420: real time    0.1416
    ORTHCH:  cpu time    0.0010: real time    0.0009
       DOS:  cpu time    0.0000: real time    0.0001
    CHARGE:  cpu time    0.0360: real time    0.0357
    MIXING:  cpu time    0.0110: real time    0.0110
    --------------------------------------------
      LOOP:  cpu time    0.5889: real time    0.5893

 eigenvalue-minimisations  :    48
 total energy-change (2. order) :-0.5860173E-03  (-0.3256802E-05)
 number of electron       6.0000002 magnetization       0.0006786
 augmentation part        0.4798254 magnetization       0.0144004

 Broyden mixing:
  rms(total) = 0.27139E-01    rms(broyden)= 0.26961E-01
  rms(prec ) = 0.27530E-01
  weight for this iteration     100.00

 eigenvalues of (default mixing * dielectric matrix)
  average eigenvalue GAMMA=   0.3477
  2.4996  0.7030  0.7030  0.4275  0.4275  0.1505  0.1505  0.1590  0.0846  0.0846
  0.0484  0.0236  0.0335  0.0296  0.0294  0.0096

 Free energy of the ion-electron system (eV)
  ---------------------------------------------------
  alpha Z        PSCENC =         0.06949813
  Ewald energy   TEWEN  =       -73.30427287
  -Hartree energ DENC   =      -300.89379035
  -exchange      EXHF   =         0.00000000
  -V(xc)+E(xc)   XCENC  =        24.44231575
  PAW double counting   =       296.16614642     -295.37866140
  entropy T*S    EENTRO =        -0.07708744
  eigenvalues    EBANDS =       -83.46323161
  atomic energy  EATOM  =       432.35423390
  Solvation  Ediel_sol  =         0.00000000
  ---------------------------------------------------
  free energy    TOTEN  =        -0.08484947 eV

  energy without entropy =       -0.00776203  energy(sigma->0) =       -0.04630575


--------------------------------------------------------------------------------------------------------




--------------------------------------- Iteration      1(  22)  ---------------------------------------


    POTLOK:  cpu time    0.3549: real time    0.3555
    SETDIJ:  cpu time    0.0070: real time    0.0073
    EDDIAG:  cpu time    0.0370: real time    0.0368
  RMM-DIIS:  cpu time    0.1430: real time    0.1429
    ORTHCH:  cpu time    0.0010: real time    0.0010
       DOS:  cpu time    0.0000: real time    0.0001
    CHARGE:  cpu time    0.0360: real time    0.0359
    MIXING:  cpu time    0.0110: real time    0.0112
    --------------------------------------------
      LOOP:  cpu time    0.5899: real time    0.5906

 eigenvalue-minimisations  :    48
 total energy-change (2. order) :-0.1980307E-02  (-0.4135033E-05)
 number of electron       6.0000002 magnetization       0.0005643
 augmentation part        0.4798437 magnetization      -0.0130442

 Broyden mixing:
  rms(total) = 0.16059E-01    rms(broyden)= 0.15805E-01
  rms(prec ) = 0.16268E-01
  weight for this iteration     100.00

 eigenvalues of (default mixing * dielectric matrix)
  average eigenvalue GAMMA=   0.3852
  2.4993  0.8731  0.8731  0.6169  0.6169  0.2597  0.1637  0.1510  0.1510  0.0846
  0.0846  0.0484  0.0236  0.0335  0.0296  0.0294  0.0096

 Free energy of the ion-electron system (eV)
  ---------------------------------------------------
  alpha Z        PSCENC =         0.06949813
  Ewald energy   TEWEN  =       -73.30427287
  -Hartree energ DENC   =      -300.88398948
  -exchange      EXHF   =         0.00000000
  -V(xc)+E(xc)   XCENC  =        24.43958767
  PAW double counting   =       296.15318154     -295.36565409
  entropy T*S    EENTRO =        -0.07712049
  eigenvalues    EBANDS =       -83.47229409
  atomic energy  EATOM  =       432.35423390
  Solvation  Ediel_sol  =         0.00000000
  ---------------------------------------------------
  free energy    TOTEN  =        -0.08682978 eV

  energy without entropy =       -0.00970928  energy(sigma->0) =       -0.04826953


--------------------------------------------------------------------------------------------------------




--------------------------------------- Iteration      1(  23)  ---------------------------------------


    POTLOK:  cpu time    0.3569: real time    0.3563
    SETDIJ:  cpu time    0.0070: real time    0.0073
    EDDIAG:  cpu time    0.0370: real time    0.0368
  RMM-DIIS:  cpu time    0.1420: real time    0.1410
    ORTHCH:  cpu time    0.0010: real time    0.0010
       DOS:  cpu time    0.0000: real time    0.0001
    CHARGE:  cpu time    0.0360: real time    0.0361
    MIXING:  cpu time    0.0120: real time    0.0117
    --------------------------------------------
      LOOP:  cpu time    0.5919: real time    0.5903

 eigenvalue-minimisations  :    48
 total energy-change (2. order) :-0.1779873E-02  (-0.5633360E-05)
 number of electron       6.0000002 magnetization       0.0004576
 augmentation part        0.4798566 magnetization      -0.0060171

 Broyden mixing:
  rms(total) = 0.10442E-01    rms(broyden)= 0.10207E-01
  rms(prec ) = 0.10605E-01
  weight for this iteration     100.00

 eigenvalues of (default mixing * dielectric matrix)
  average eigenvalue GAMMA=   0.3919
  2.4994  0.9543  0.9543  0.5781  0.5781  0.3412  0.3412  0.1508  0.1508  0.1622
  0.0846  0.0846  0.0484  0.0236  0.0335  0.0296  0.0294  0.0096

 Free energy of the ion-electron system (eV)
  ---------------------------------------------------
  alpha Z        PSCENC =         0.06949813
  Ewald energy   TEWEN  =       -73.30427287
  -Hartree energ DENC   =      -300.87373632
  -exchange      EXHF   =         0.00000000
  -V(xc)+E(xc)   XCENC  =        24.43738449
  PAW double counting   =       296.13811739     -295.35053468
  entropy T*S    EENTRO =        -0.07712558
  eigenvalues    EBANDS =       -83.48217412
  atomic energy  EATOM  =       432.35423390
  Solvation  Ediel_sol  =         0.00000000
  ---------------------------------------------------
  free energy    TOTEN  =        -0.08860965 eV

  energy without entropy =       -0.01148407  energy(sigma->0) =       -0.05004686


--------------------------------------------------------------------------------------------------------




--------------------------------------- Iteration      1(  24)  ---------------------------------------


    POTLOK:  cpu time    0.3549: real time    0.3560
    SETDIJ:  cpu time    0.0070: real time    0.0073
    EDDIAG:  cpu time    0.0370: real time    0.0369
  RMM-DIIS:  cpu time    0.1420: real time    0.1427
    ORTHCH:  cpu time    0.0010: real time    0.0010
       DOS:  cpu time    0.0010: real time    0.0001
    CHARGE:  cpu time    0.0350: real time    0.0356
    MIXING:  cpu time    0.0120: real time    0.0120
    --------------------------------------------
      LOOP:  cpu time    0.5899: real time    0.5916

 eigenvalue-minimisations  :    48
 total energy-change (2. order) :-0.6364789E-03  (-0.3353623E-05)
 number of electron       6.0000002 magnetization       0.0004054
 augmentation part        0.4798832 magnetization      -0.0035501

 Broyden mixing:
  rms(total) = 0.97712E-02    rms(broyden)= 0.97288E-02
  rms(prec ) = 0.98994E-02
  weight for this iteration     100.00

 eigenvalues of (default mixing * dielectric matrix)
  average eigenvalue GAMMA=   0.4598
  2.4995  1.1870  1.1870  0.7412  0.7412  0.6402  0.6402  0.2926  0.1509  0.1509
  0.1626  0.0846  0.0846  0.0484  0.0236  0.0335  0.0296  0.0294  0.0096

 Free energy of the ion-electron system (eV)
  ---------------------------------------------------
  alpha Z        PSCENC =         0.06949813
  Ewald energy   TEWEN  =       -73.30427287
  -Hartree energ DENC   =      -300.86279501
  -exchange      EXHF   =         0.00000000
  -V(xc)+E(xc)   XCENC  =        24.43623180
  PAW double counting   =       296.12198408     -295.33432160
  entropy T*S    EENTRO =        -0.07712506
  eigenvalues    EBANDS =       -83.49267951
  atomic energy  EATOM  =       432.35423390
  Solvation  Ediel_sol  =         0.00000000
  ---------------------------------------------------
  free energy    TOTEN  =        -0.08924613 eV

  energy without entropy =       -0.01212107  energy(sigma->0) =       -0.05068360


--------------------------------------------------------------------------------------------------------




--------------------------------------- Iteration      1(  25)  ---------------------------------------


    POTLOK:  cpu time    0.3549: real time    0.3563
    SETDIJ:  cpu time    0.0080: real time    0.0074
    EDDIAG:  cpu time    0.0370: real time    0.0368
  RMM-DIIS:  cpu time    0.1420: real time    0.1421
    ORTHCH:  cpu time    0.0010: real time    0.0010
       DOS:  cpu time    0.0000: real time    0.0001
    CHARGE:  cpu time    0.0360: real time    0.0361
    MIXING:  cpu time    0.0120: real time    0.0125
    --------------------------------------------
      LOOP:  cpu time    0.5909: real time    0.5923

 eigenvalue-minimisations  :    48
 total energy-change (2. order) : 0.2145025E-03  (-0.5912624E-06)
 number of electron       6.0000002 magnetization       0.0002989
 augmentation part        0.4799171 magnetization      -0.0066689

 Broyden mixing:
  rms(total) = 0.87269E-02    rms(broyden)= 0.87089E-02
  rms(prec ) = 0.87329E-02
  weight for this iteration     100.00

 eigenvalues of (default mixing * dielectric matrix)
  average eigenvalue GAMMA=   0.4985
  2.4994  1.4834  1.4834  0.8304  0.8304  0.6719  0.6719  0.3901  0.3008  0.1509
  0.1509  0.1626  0.0846  0.0846  0.0484  0.0236  0.0335  0.0296  0.0294  0.0096

 Free energy of the ion-electron system (eV)
  ---------------------------------------------------
  alpha Z        PSCENC =         0.06949813
  Ewald energy   TEWEN  =       -73.30427287
  -Hartree energ DENC   =      -300.85691463
  -exchange      EXHF   =         0.00000000
  -V(xc)+E(xc)   XCENC  =        24.43598581
  PAW double counting   =       296.11721030     -295.32949709
  entropy T*S    EENTRO =        -0.07712728
  eigenvalues    EBANDS =       -83.49814789
  atomic energy  EATOM  =       432.35423390
  Solvation  Ediel_sol  =         0.00000000
  ---------------------------------------------------
  free energy    TOTEN  =        -0.08903163 eV

  energy without entropy =       -0.01190435  energy(sigma->0) =       -0.05046799


--------------------------------------------------------------------------------------------------------




--------------------------------------- Iteration      1(  26)  ---------------------------------------


    POTLOK:  cpu time    0.3579: real time    0.3567
    SETDIJ:  cpu time    0.0070: real time    0.0072
    EDDIAG:  cpu time    0.0370: real time    0.0368
  RMM-DIIS:  cpu time    0.1310: real time    0.1320
    ORTHCH:  cpu time    0.0010: real time    0.0009
       DOS:  cpu time    0.0000: real time    0.0001
    CHARGE:  cpu time    0.0360: real time    0.0359
    MIXING:  cpu time    0.0130: real time    0.0126
    --------------------------------------------
      LOOP:  cpu time    0.5829: real time    0.5822

 eigenvalue-minimisations  :    45
 total energy-change (2. order) :-0.1929273E-04  (-0.2675759E-06)
 number of electron       6.0000002 magnetization       0.0001619
 augmentation part        0.4799097 magnetization      -0.0041654

 Broyden mixing:
  rms(total) = 0.56426E-02    rms(broyden)= 0.56221E-02
  rms(prec ) = 0.56684E-02
  weight for this iteration     100.00

 eigenvalues of (default mixing * dielectric matrix)
  average eigenvalue GAMMA=   0.6011
  2.4982  2.1515  2.1515  1.0127  1.0127  0.7500  0.7500  0.6412  0.5512  0.2962
  0.1509  0.1509  0.1626  0.0846  0.0846  0.0484  0.0236  0.0335  0.0296  0.0294
  0.0096

 Free energy of the ion-electron system (eV)
  ---------------------------------------------------
  alpha Z        PSCENC =         0.06949813
  Ewald energy   TEWEN  =       -73.30427287
  -Hartree energ DENC   =      -300.86004750
  -exchange      EXHF   =         0.00000000
  -V(xc)+E(xc)   XCENC  =        24.43619293
  PAW double counting   =       296.12570214     -295.33800254
  entropy T*S    EENTRO =        -0.07712954
  eigenvalues    EBANDS =       -83.49522559
  atomic energy  EATOM  =       432.35423390
  Solvation  Ediel_sol  =         0.00000000
  ---------------------------------------------------
  free energy    TOTEN  =        -0.08905092 eV

  energy without entropy =       -0.01192138  energy(sigma->0) =       -0.05048615


--------------------------------------------------------------------------------------------------------




--------------------------------------- Iteration      1(  27)  ---------------------------------------


    POTLOK:  cpu time    0.3569: real time    0.3567
    SETDIJ:  cpu time    0.0080: real time    0.0073
    EDDIAG:  cpu time    0.0360: real time    0.0367
  RMM-DIIS:  cpu time    0.1260: real time    0.1255
    ORTHCH:  cpu time    0.0010: real time    0.0009
       DOS:  cpu time    0.0000: real time    0.0001
    CHARGE:  cpu time    0.0360: real time    0.0362
    MIXING:  cpu time    0.0130: real time    0.0127
    --------------------------------------------
      LOOP:  cpu time    0.5769: real time    0.5762

 eigenvalue-minimisations  :    44
 total energy-change (2. order) :-0.1392053E-03  (-0.2220885E-06)
 number of electron       6.0000002 magnetization       0.0000655
 augmentation part        0.4798959 magnetization      -0.0016175

 Broyden mixing:
  rms(total) = 0.23209E-02    rms(broyden)= 0.21861E-02
  rms(prec ) = 0.22850E-02
  weight for this iteration     100.00

 eigenvalues of (default mixing * dielectric matrix)
  average eigenvalue GAMMA=   0.6460
  2.4971  2.3243  2.3243  1.3141  1.3141  0.7814  0.7814  0.6194  0.6194  0.5324
  0.2964  0.1509  0.1509  0.1626  0.0846  0.0846  0.0484  0.0236  0.0335  0.0296
  0.0294  0.0096

 Free energy of the ion-electron system (eV)
  ---------------------------------------------------
  alpha Z        PSCENC =         0.06949813
  Ewald energy   TEWEN  =       -73.30427287
  -Hartree energ DENC   =      -300.86139413
  -exchange      EXHF   =         0.00000000
  -V(xc)+E(xc)   XCENC  =        24.43617603
  PAW double counting   =       296.13315913     -295.34546391
  entropy T*S    EENTRO =        -0.07713094
  eigenvalues    EBANDS =       -83.49399548
  atomic energy  EATOM  =       432.35423390
  Solvation  Ediel_sol  =         0.00000000
  ---------------------------------------------------
  free energy    TOTEN  =        -0.08919012 eV

  energy without entropy =       -0.01205919  energy(sigma->0) =       -0.05062465


--------------------------------------------------------------------------------------------------------




--------------------------------------- Iteration      1(  28)  ---------------------------------------


    POTLOK:  cpu time    0.3569: real time    0.3567
    SETDIJ:  cpu time    0.0070: real time    0.0072
    EDDIAG:  cpu time    0.0360: real time    0.0368
  RMM-DIIS:  cpu time    0.1400: real time    0.1409
    ORTHCH:  cpu time    0.0010: real time    0.0010
       DOS:  cpu time    0.0010: real time    0.0001
    CHARGE:  cpu time    0.0350: real time    0.0359
    MIXING:  cpu time    0.0140: real time    0.0131
    --------------------------------------------
      LOOP:  cpu time    0.5909: real time    0.5917

 eigenvalue-minimisations  :    45
 total energy-change (2. order) :-0.1792254E-03  (-0.5092894E-06)
 number of electron       6.0000002 magnetization       0.0000437
 augmentation part        0.4798930 magnetization      -0.0004258

 Broyden mixing:
  rms(total) = 0.24385E-02    rms(broyden)= 0.23889E-02
  rms(prec ) = 0.23921E-02
  weight for this iteration     100.00

 eigenvalues of (default mixing * dielectric matrix)
  average eigenvalue GAMMA=   0.6493
  2.4970  2.2247  2.2247  1.4505  1.4505  0.7917  0.7917  0.6394  0.6394  0.5600
  0.5600  0.2964  0.1509  0.1509  0.1626  0.0846  0.0846  0.0484  0.0236  0.0335
  0.0296  0.0294  0.0096

 Free energy of the ion-electron system (eV)
  ---------------------------------------------------
  alpha Z        PSCENC =         0.06949813
  Ewald energy   TEWEN  =       -73.30427287
  -Hartree energ DENC   =      -300.85819779
  -exchange      EXHF   =         0.00000000
  -V(xc)+E(xc)   XCENC  =        24.43581661
  PAW double counting   =       296.13083574     -295.34312487
  entropy T*S    EENTRO =        -0.07713075
  eigenvalues    EBANDS =       -83.49702745
  atomic energy  EATOM  =       432.35423390
  Solvation  Ediel_sol  =         0.00000000
  ---------------------------------------------------
  free energy    TOTEN  =        -0.08936935 eV

  energy without entropy =       -0.01223860  energy(sigma->0) =       -0.05080397


--------------------------------------------------------------------------------------------------------




--------------------------------------- Iteration      1(  29)  ---------------------------------------


    POTLOK:  cpu time    0.3559: real time    0.3563
    SETDIJ:  cpu time    0.0070: real time    0.0074
    EDDIAG:  cpu time    0.0370: real time    0.0367
  RMM-DIIS:  cpu time    0.1420: real time    0.1420
    ORTHCH:  cpu time    0.0010: real time    0.0010
       DOS:  cpu time    0.0000: real time    0.0001
    CHARGE:  cpu time    0.0360: real time    0.0363
    MIXING:  cpu time    0.0140: real time    0.0136
    --------------------------------------------
      LOOP:  cpu time    0.5929: real time    0.5935

 eigenvalue-minimisations  :    44
 total energy-change (2. order) : 0.3032340E-04  (-0.1257016E-06)
 number of electron       6.0000002 magnetization       0.0000268
 augmentation part        0.4799026 magnetization      -0.0004876

 Broyden mixing:
  rms(total) = 0.21303E-02    rms(broyden)= 0.21283E-02
  rms(prec ) = 0.21297E-02
  weight for this iteration     100.00

 eigenvalues of (default mixing * dielectric matrix)
  average eigenvalue GAMMA=   0.6981
  2.7263  2.5175  1.8511  1.8511  1.4065  0.9964  0.8507  0.8507  0.7209  0.7209
  0.6194  0.5393  0.2964  0.1509  0.1509  0.1626  0.0846  0.0846  0.0484  0.0236
  0.0335  0.0296  0.0294  0.0096

 Free energy of the ion-electron system (eV)
  ---------------------------------------------------
  alpha Z        PSCENC =         0.06949813
  Ewald energy   TEWEN  =       -73.30427287
  -Hartree energ DENC   =      -300.85657362
  -exchange      EXHF   =         0.00000000
  -V(xc)+E(xc)   XCENC  =        24.43574049
  PAW double counting   =       296.12853200     -295.34081859
  entropy T*S    EENTRO =        -0.07713084
  eigenvalues    EBANDS =       -83.49854763
  atomic energy  EATOM  =       432.35423390
  Solvation  Ediel_sol  =         0.00000000
  ---------------------------------------------------
  free energy    TOTEN  =        -0.08933903 eV

  energy without entropy =       -0.01220818  energy(sigma->0) =       -0.05077360


--------------------------------------------------------------------------------------------------------




--------------------------------------- Iteration      1(  30)  ---------------------------------------


    POTLOK:  cpu time    0.3559: real time    0.3563
    SETDIJ:  cpu time    0.0080: real time    0.0073
    EDDIAG:  cpu time    0.0360: real time    0.0368
  RMM-DIIS:  cpu time    0.1250: real time    0.1246
    ORTHCH:  cpu time    0.0010: real time    0.0009
       DOS:  cpu time    0.0000: real time    0.0001
    CHARGE:  cpu time    0.0360: real time    0.0361
    MIXING:  cpu time    0.0140: real time    0.0142
    --------------------------------------------
      LOOP:  cpu time    0.5759: real time    0.5762

 eigenvalue-minimisations  :    40
 total energy-change (2. order) : 0.7049567E-05  (-0.9742812E-08)
 number of electron       6.0000002 magnetization       0.0000050
 augmentation part        0.4798994 magnetization      -0.0001793

 Broyden mixing:
  rms(total) = 0.12292E-02    rms(broyden)= 0.12219E-02
  rms(prec ) = 0.12253E-02
  weight for this iteration     100.00

 eigenvalues of (default mixing * dielectric matrix)
  average eigenvalue GAMMA=   0.6966
  2.4884  2.4884  1.8398  1.8398  1.5333  1.5333  0.8342  0.8342  0.6551  0.6551
  0.5374  0.5356  0.5356  0.2964  0.1509  0.1509  0.1626  0.0846  0.0846  0.0484
  0.0236  0.0335  0.0296  0.0294  0.0096

 Free energy of the ion-electron system (eV)
  ---------------------------------------------------
  alpha Z        PSCENC =         0.06949813
  Ewald energy   TEWEN  =       -73.30427287
  -Hartree energ DENC   =      -300.85670736
  -exchange      EXHF   =         0.00000000
  -V(xc)+E(xc)   XCENC  =        24.43575916
  PAW double counting   =       296.12909858     -295.34139650
  entropy T*S    EENTRO =        -0.07713106
  eigenvalues    EBANDS =       -83.49841396
  atomic energy  EATOM  =       432.35423390
  Solvation  Ediel_sol  =         0.00000000
  ---------------------------------------------------
  free energy    TOTEN  =        -0.08933198 eV

  energy without entropy =       -0.01220092  energy(sigma->0) =       -0.05076645


--------------------------------------------------------------------------------------------------------




--------------------------------------- Iteration      1(  31)  ---------------------------------------


    POTLOK:  cpu time    0.3549: real time    0.3552
    SETDIJ:  cpu time    0.0080: real time    0.0074
    EDDIAG:  cpu time    0.0370: real time    0.0367
  RMM-DIIS:  cpu time    0.1250: real time    0.1250
    ORTHCH:  cpu time    0.0000: real time    0.0009
       DOS:  cpu time    0.0010: real time    0.0001
    CHARGE:  cpu time    0.0360: real time    0.0363
    MIXING:  cpu time    0.0140: real time    0.0142
    --------------------------------------------
      LOOP:  cpu time    0.5759: real time    0.5758

 eigenvalue-minimisations  :    40
 total energy-change (2. order) :-0.2665742E-04  (-0.1293483E-07)
 number of electron       6.0000002 magnetization      -0.0000054
 augmentation part        0.4799016 magnetization       0.0001983

 Broyden mixing:
  rms(total) = 0.46252E-03    rms(broyden)= 0.43470E-03
  rms(prec ) = 0.43616E-03
  weight for this iteration     100.00

 eigenvalues of (default mixing * dielectric matrix)
  average eigenvalue GAMMA=   0.7231
  2.6957  2.6957  2.4976  1.6707  1.6707  0.9287  0.9287  0.8028  0.8028  0.7081
  0.7081  0.5659  0.5659  0.4547  0.2964  0.1509  0.1509  0.1626  0.0846  0.0846
  0.0484  0.0236  0.0335  0.0296  0.0294  0.0096

 Free energy of the ion-electron system (eV)
  ---------------------------------------------------
[...]
  rms(total) = 0.95276E-03    rms(broyden)= 0.95159E-03
  rms(prec ) = 0.98719E-03
  weight for this iteration     100.00

 eigenvalues of (default mixing * dielectric matrix)
  average eigenvalue GAMMA=   1.8521
 12.2036  7.1117  7.1117  2.7367  2.7367  1.4221  1.4221  1.2731  1.2731  0.4007
  0.9582  0.7967  0.7967  0.5317  0.5317  0.6270  0.6270  0.5777  0.5777  0.5843
  0.4118  0.4118  0.4503  0.4503  0.2790

 Free energy of the ion-electron system (eV)
  ---------------------------------------------------
  alpha Z        PSCENC =         0.16312051
  Ewald energy   TEWEN  =       -97.63028661
  -Hartree energ DENC   =      -279.36394638
  -exchange      EXHF   =         0.00000000
  -V(xc)+E(xc)   XCENC  =        25.36185358
  PAW double counting   =       359.41361557     -358.59333482
  entropy T*S    EENTRO =        -0.00000000
  eigenvalues    EBANDS =       -83.65480286
  atomic energy  EATOM  =       432.35423390
  Solvation  Ediel_sol  =         0.00000000
  ---------------------------------------------------
  free energy    TOTEN  =        -1.94954711 eV

  energy without entropy =       -1.94954711  energy(sigma->0) =       -1.94954711


--------------------------------------------------------------------------------------------------------




--------------------------------------- Iteration     20(  27)  ---------------------------------------


    POTLOK:  cpu time    0.3579: real time    0.3587
    SETDIJ:  cpu time    0.0080: real time    0.0077
    EDDIAG:  cpu time    0.0370: real time    0.0368
  RMM-DIIS:  cpu time    0.1430: real time    0.1434
    ORTHCH:  cpu time    0.0010: real time    0.0009
       DOS:  cpu time    0.0000: real time    0.0001
    --------------------------------------------
      LOOP:  cpu time    0.5469: real time    0.5476

 eigenvalue-minimisations  :    44
 total energy-change (2. order) : 0.4113303E-08  (-0.1644982E-06)
 number of electron       6.0000000 magnetization      -2.0000000
 augmentation part        0.5077652 magnetization      -0.4192581

 Free energy of the ion-electron system (eV)
  ---------------------------------------------------
  alpha Z        PSCENC =         0.16312051
  Ewald energy   TEWEN  =       -97.63028661
  -Hartree energ DENC   =      -279.36418718
  -exchange      EXHF   =         0.00000000
  -V(xc)+E(xc)   XCENC  =        25.36185698
  PAW double counting   =       359.41612903     -358.59585330
  entropy T*S    EENTRO =        -0.00000000
  eigenvalues    EBANDS =       -83.65456043
  atomic energy  EATOM  =       432.35423390
  Solvation  Ediel_sol  =         0.00000000
  ---------------------------------------------------
  free energy    TOTEN  =        -1.94954711 eV

  energy without entropy =       -1.94954711  energy(sigma->0) =       -1.94954711


--------------------------------------------------------------------------------------------------------




 average (electrostatic) potential at core
  the test charge radii are     0.6768
  (the norm of the test charge is              1.0000)
       1-127.8260
 
 
 
 E-fermi :  -7.0633     XC(G=0):  -0.9401     alpha+bet : -0.2066


 spin component 1

 k-point     1 :       0.0000    0.0000    0.0000
  band No.  band energies     occupation 
      1     -21.3306      1.00000
      2      -7.3658      1.00000
      3      -6.1929      0.00000
      4      -6.1925      0.00000
      5      -0.3373      0.00000
      6       1.7083      0.00000
      7       1.7724      0.00000
      8       3.2462      0.00000
      9       3.3270      0.00000
     10       3.3985      0.00000
     11       3.4190      0.00000
     12       3.7031      0.00000

 spin component 2

 k-point     1 :       0.0000    0.0000    0.0000
  band No.  band energies     occupation 
      1     -24.9994      1.00000
      2     -10.6897      1.00000
      3     -10.6886      1.00000
      4      -8.5805      1.00000
      5      -0.5610      0.00000
      6       1.4557      0.00000
      7       1.6235      0.00000
      8       2.7964      0.00000
      9       2.9860      0.00000
     10       3.1523      0.00000
     11       3.3010      0.00000
     12       3.4471      0.00000


--------------------------------------------------------------------------------------------------------


 soft charge-density along one line, spin component           1
         0         1         2         3         4         5         6         7         8         9
 total charge-density along one line
 
 soft charge-density along one line, spin component           2
         0         1         2         3         4         5         6         7         8         9
 total charge-density along one line
 
 pseudopotential strength for first ion, spin component:           1
 33.068  34.104  38.032  -0.000  -0.000  -0.000  -0.000  -0.000
 34.104  35.172  39.188  -0.000  -0.000  -0.000  -0.000  -0.000
 38.032  39.188  29.510  -0.000  -0.000  -0.000  -0.000  -0.000
 -0.000  -0.000  -0.000  -6.399  -0.125   0.112  -7.179  -0.145
 -0.000  -0.000  -0.000  -0.125  -6.349   0.092  -0.145  -7.120
 -0.000  -0.000  -0.000   0.112   0.092  -6.330   0.131   0.107
 -0.000  -0.000  -0.000  -7.179  -0.145   0.131  -8.039  -0.169
 -0.000  -0.000  -0.000  -0.145  -7.120   0.107  -0.169  -7.970
 -0.000  -0.000  -0.000   0.131   0.107  -7.099   0.152   0.125
  0.000   0.000   0.000  -3.229   0.266  -0.239  -4.700   0.305
  0.000   0.000   0.000   0.266  -3.337  -0.196   0.305  -4.824
  0.000   0.000   0.000  -0.239  -0.196  -3.377  -0.275  -0.225
 -0.026  -0.027   0.015  -0.000   0.000  -0.000  -0.000   0.000
  0.028   0.030  -0.016  -0.000  -0.000   0.000  -0.000  -0.000
 -0.002  -0.002   0.001   0.000  -0.000   0.000   0.000  -0.000
 -0.021  -0.022   0.012   0.000  -0.000  -0.000   0.000  -0.000
 -0.008  -0.008   0.005   0.000  -0.000  -0.000   0.000  -0.000
 -0.159  -0.165  -0.026   0.000  -0.000   0.000   0.000  -0.000
  0.177   0.184   0.029   0.000   0.000  -0.000   0.000   0.000
 -0.013  -0.014  -0.002  -0.000   0.000  -0.000  -0.000   0.000
 -0.131  -0.136  -0.021  -0.000   0.000   0.000  -0.000   0.000
 -0.049  -0.051  -0.008  -0.000   0.000   0.000  -0.000   0.000
 pseudopotential strength for first ion, spin component:           2
 34.013  35.077  39.641   0.000   0.000   0.000   0.000   0.000
 35.077  36.174  40.843   0.000   0.000   0.000   0.000   0.000
 39.641  40.843  32.994   0.000   0.000   0.000   0.000   0.000
  0.000   0.000   0.000  -7.223   0.200  -0.181  -8.136   0.232
  0.000   0.000   0.000   0.200  -7.304  -0.148   0.232  -8.230
  0.000   0.000   0.000  -0.181  -0.148  -7.334  -0.209  -0.172
  0.000   0.000   0.000  -8.136   0.232  -0.209  -9.150   0.270
  0.000   0.000   0.000   0.232  -8.230  -0.172   0.270  -9.259
  0.000   0.000   0.000  -0.209  -0.172  -8.265  -0.243  -0.199
 -0.000  -0.000  -0.000  -1.686  -0.334   0.301  -2.921  -0.384
 -0.000  -0.000  -0.000  -0.334  -1.552   0.247  -0.384  -2.766
 -0.000  -0.000  -0.000   0.301   0.247  -1.501   0.346   0.284
  0.002   0.003  -0.002   0.000  -0.000   0.000   0.000  -0.000
 -0.003  -0.003   0.002   0.000   0.000  -0.000   0.000   0.000
  0.000   0.000  -0.000  -0.000   0.000  -0.000  -0.000   0.000
  0.002   0.002  -0.002  -0.000   0.000   0.000  -0.000   0.000
  0.001   0.001  -0.001  -0.000  -0.000   0.000  -0.000  -0.000
  0.237   0.246   0.029  -0.000   0.000  -0.000  -0.000   0.000
 -0.264  -0.273  -0.032  -0.000  -0.000   0.000  -0.000  -0.000
  0.019   0.020   0.002   0.000  -0.000   0.000   0.000  -0.000
  0.195   0.202   0.023   0.000  -0.000  -0.000   0.000  -0.000
  0.073   0.076   0.009   0.000   0.000  -0.000   0.000   0.000
 total augmentation occupancy for first ion, spin component:           1
  2.974  -0.562  -0.002   0.000   0.001   0.000  -0.000  -0.001  -0.000  -0.000  -0.000  -0.000   0.013  -0.014   0.001   0.011
 -0.562   0.161   0.000  -0.000  -0.000   0.000   0.000   0.000  -0.000   0.000   0.000  -0.000  -0.006   0.006  -0.000  -0.005
 -0.002   0.000   0.000  -0.000  -0.000  -0.000   0.000   0.000   0.000   0.000   0.000   0.000   0.000  -0.000   0.000   0.000
  0.000  -0.000  -0.000   1.675   0.828  -0.727  -0.129  -0.233   0.198  -0.003  -0.001   0.001   0.000  -0.000  -0.000   0.000
  0.001  -0.000  -0.000   0.828   1.380  -0.611  -0.225  -0.055   0.166  -0.001  -0.003   0.001   0.000  -0.000   0.000   0.000
  0.000   0.000  -0.000  -0.727  -0.611   1.228   0.198   0.172  -0.008   0.001   0.001  -0.003  -0.000   0.000   0.000  -0.000
 -0.000   0.000   0.000  -0.129  -0.225   0.198   0.056   0.025  -0.021   0.000   0.000  -0.000  -0.000   0.000  -0.000  -0.000
 -0.001   0.000   0.000  -0.233  -0.055   0.172   0.025   0.050  -0.018   0.000  -0.000  -0.000  -0.000   0.000  -0.000  -0.000
 -0.000  -0.000   0.000   0.198   0.166  -0.008  -0.021  -0.018   0.043  -0.000  -0.000  -0.000   0.000  -0.000   0.000   0.000
 -0.000   0.000   0.000  -0.003  -0.001   0.001   0.000   0.000  -0.000   0.000   0.000  -0.000  -0.000   0.000  -0.000  -0.000
 -0.000   0.000   0.000  -0.001  -0.003   0.001   0.000  -0.000  -0.000   0.000   0.000  -0.000  -0.000   0.000  -0.000  -0.000
 -0.000  -0.000   0.000   0.001   0.001  -0.003  -0.000  -0.000  -0.000  -0.000  -0.000   0.000   0.000  -0.000   0.000   0.000
  0.013  -0.006   0.000   0.000   0.000  -0.000  -0.000  -0.000   0.000  -0.000  -0.000   0.000   0.000  -0.000   0.000   0.000
 -0.014   0.006  -0.000  -0.000  -0.000   0.000   0.000   0.000  -0.000   0.000   0.000  -0.000  -0.000   0.000  -0.000  -0.000
  0.001  -0.000   0.000  -0.000   0.000   0.000  -0.000  -0.000   0.000  -0.000  -0.000   0.000   0.000  -0.000   0.000   0.000
  0.011  -0.005   0.000   0.000   0.000  -0.000  -0.000  -0.000   0.000  -0.000  -0.000   0.000   0.000  -0.000   0.000   0.000
  0.004  -0.002   0.000   0.000   0.000  -0.000  -0.000  -0.000   0.000  -0.000  -0.000   0.000   0.000  -0.000   0.000   0.000
 -0.003   0.002  -0.000  -0.000  -0.000   0.000   0.000   0.000  -0.000   0.000   0.000  -0.000  -0.000   0.000  -0.000  -0.000
  0.003  -0.002   0.000   0.000   0.000  -0.000  -0.000  -0.000   0.000  -0.000  -0.000   0.000   0.000  -0.000   0.000   0.000
 -0.000   0.000  -0.000  -0.000   0.000   0.000   0.000   0.000  -0.000   0.000   0.000  -0.000  -0.000   0.000  -0.000  -0.000
 -0.002   0.001  -0.000  -0.000  -0.000   0.000   0.000   0.000  -0.000   0.000   0.000  -0.000  -0.000   0.000  -0.000  -0.000
 -0.001   0.001  -0.000  -0.000  -0.000   0.000   0.000   0.000  -0.000   0.000   0.000  -0.000  -0.000   0.000  -0.000  -0.000
 total augmentation occupancy for first ion, spin component:           2
 -1.068   0.578  -0.002  -0.000  -0.001   0.000   0.000   0.001  -0.000   0.000   0.000  -0.000  -0.026   0.029  -0.002  -0.021
  0.578  -0.161  -0.000   0.000   0.000  -0.000  -0.000  -0.000   0.000  -0.000  -0.000   0.000   0.005  -0.006   0.000   0.004
 -0.002  -0.000   0.000   0.000   0.000  -0.000   0.000  -0.000   0.000   0.000  -0.000   0.000   0.000  -0.000   0.000   0.000
 -0.000   0.000   0.000  -0.118   0.468  -0.422  -0.219  -0.067   0.059   0.001  -0.001   0.001  -0.000   0.000  -0.000  -0.000
 -0.001   0.000   0.000   0.468  -0.302  -0.345  -0.065  -0.195   0.048  -0.001   0.001   0.000  -0.000   0.000  -0.000  -0.000
  0.000  -0.000  -0.000  -0.422  -0.345  -0.380   0.059   0.050  -0.182   0.001   0.000   0.002   0.000   0.000  -0.000   0.000
  0.000  -0.000   0.000  -0.219  -0.065   0.059   0.021   0.042  -0.036   0.000   0.000   0.000   0.000  -0.000   0.000   0.000
  0.001  -0.000  -0.000  -0.067  -0.195   0.050   0.042   0.008  -0.031  -0.000   0.000   0.000   0.000  -0.000   0.000   0.000
 -0.000   0.000   0.000   0.059   0.048  -0.182  -0.036  -0.031  -0.001   0.000  -0.000   0.000  -0.000   0.000  -0.000  -0.000
  0.000  -0.000   0.000   0.001  -0.001   0.001   0.000  -0.000   0.000  -0.000   0.000  -0.000   0.000  -0.000   0.000   0.000
  0.000  -0.000  -0.000  -0.001   0.001   0.000   0.000   0.000  -0.000   0.000  -0.000  -0.000   0.000  -0.000   0.000   0.000
 -0.000   0.000   0.000   0.001   0.000   0.002   0.000   0.000   0.000  -0.000  -0.000  -0.000  -0.000   0.000  -0.000  -0.000
 -0.026   0.005   0.000  -0.000  -0.000   0.000   0.000   0.000  -0.000   0.000   0.000  -0.000  -0.000   0.000  -0.000  -0.000
  0.029  -0.006  -0.000   0.000   0.000   0.000  -0.000  -0.000   0.000  -0.000  -0.000   0.000   0.000  -0.000   0.000   0.000
 -0.002   0.000   0.000  -0.000  -0.000  -0.000   0.000   0.000  -0.000   0.000   0.000  -0.000  -0.000   0.000  -0.000  -0.000
 -0.021   0.004   0.000  -0.000  -0.000   0.000   0.000   0.000  -0.000   0.000   0.000  -0.000  -0.000   0.000  -0.000  -0.000
 -0.008   0.002   0.000  -0.000  -0.000  -0.000   0.000   0.000   0.000   0.000   0.000  -0.000  -0.000   0.000  -0.000  -0.000
  0.009  -0.002  -0.000   0.000   0.000   0.000  -0.000  -0.000  -0.000  -0.000  -0.000  -0.000   0.000  -0.000   0.000   0.000
 -0.010   0.002   0.000  -0.000  -0.000   0.000   0.000   0.000   0.000   0.000   0.000   0.000  -0.000   0.000  -0.000  -0.000
  0.001  -0.000  -0.000   0.000  -0.000   0.000  -0.000  -0.000  -0.000  -0.000  -0.000  -0.000   0.000  -0.000   0.000   0.000
  0.008  -0.001  -0.000   0.000   0.000   0.000  -0.000  -0.000  -0.000  -0.000  -0.000  -0.000   0.000  -0.000   0.000   0.000
  0.003  -0.001  -0.000   0.000   0.000  -0.000  -0.000  -0.000  -0.000  -0.000  -0.000  -0.000   0.000  -0.000   0.000   0.000


------------------------ aborting loop because EDIFF is reached ----------------------------------------


    CHARGE:  cpu time    0.0350: real time    0.0347
    FORLOC:  cpu time    0.0040: real time    0.0045
    FORNL :  cpu time    0.0830: real time    0.0830
    STRESS:  cpu time    0.2590: real time    0.2594
    FORCOR:  cpu time    0.3429: real time    0.3424
    FORHAR:  cpu time    0.0360: real time    0.0366
    MIXING:  cpu time    0.0140: real time    0.0142
    OFIELD:  cpu time    0.0000: real time    0.0000

 ---------------------------------------------------------------------------------------------

         DFTD3 V3.0 Rev 1        
 Edisp (eV)   -0.00024

 E6    (eV) :    -0.0002
 E8    (eV) :    -0.0000
 % E8        :  5.72
    FORVDW:  cpu time    0.0130: real time    0.0124

  FORCE on cell =-STRESS in cart. coord.  units (eV):
  Direction    XX          YY          ZZ          XY          YZ          ZX
  --------------------------------------------------------------------------------------
  Alpha Z     0.16312     0.16312     0.16312
  Ewald     -24.01603   -24.88517   -48.72907    -0.38143     0.01931    -0.04935
  Hartree   100.19771   102.01620    77.14935    -4.63896     4.69728    -3.50504
  E(xc)     -29.73183   -29.72502   -29.73020    -0.01103     0.01249    -0.00925
  Local    -217.70912  -225.57787  -171.86392    16.24734   -17.17393    12.75045
  n-local    29.28682    28.95058    29.19561     0.54474    -0.60295     0.44504
  augment    15.62714    17.12410    16.04241    -2.42875     2.69640    -1.99084
  Kinetic   126.18175   131.93581   127.76814    -9.33362    10.35262    -7.64231
  Fock        0.00000     0.00000     0.00000     0.00000     0.00000     0.00000
  vdW        -0.00062    -0.00060    -0.00024     0.00001    -0.00000     0.00000
  -------------------------------------------------------------------------------------
  Total      -0.00105     0.00114    -0.00479    -0.00170     0.00121    -0.00131
  in kB      -0.00401     0.00434    -0.01833    -0.00649     0.00464    -0.00500
  external pressure =       -0.01 kB  Pullay stress =        0.00 kB


 VOLUME and BASIS-vectors are now :
 -----------------------------------------------------------------------------
  energy-cutoff  :      520.00
  volume of cell :      418.89
      direct lattice vectors                 reciprocal lattice vectors
     7.398737442 -0.045472983  0.012222494     0.135546944  0.072871518  0.035789627
    -3.529333480  6.575625219 -0.021945657     0.000995805  0.152492931 -0.035458796
    -3.368549233  2.028254890  8.628045838    -0.000189483  0.000284640  0.115760210

  length of vectors
     7.398887275  7.462943350  9.481778147     0.158000410  0.156564402  0.115760715


 FORCES acting on ions
    electron-ion (+dipol)            ewald-force                    non-local-force                 convergence-correction
 -----------------------------------------------------------------------------------------------
   -.130E-02 -.358E-03 -.140E-03   -.835E-16 0.195E-16 0.212E-17   0.178E-03 -.436E-03 -.403E-03   0.110E-02 0.670E-03 0.465E-03
 -----------------------------------------------------------------------------------------------
   -.130E-02 -.358E-03 -.140E-03   -.835E-16 0.195E-16 0.212E-17   0.178E-03 -.436E-03 -.403E-03   0.110E-02 0.670E-03 0.465E-03
 
 
 POSITION                                       TOTAL-FORCE (eV/Angst)
 -----------------------------------------------------------------------------------
     -0.11559      4.38014      5.16796        -0.000014     -0.000123     -0.000078
 -----------------------------------------------------------------------------------
    total drift:                               -0.000014     -0.000123     -0.000078


--------------------------------------------------------------------------------------------------------



  FREE ENERGIE OF THE ION-ELECTRON SYSTEM (eV)
  ---------------------------------------------------
  free  energy   TOTEN  =        -1.94978577 eV

  energy  without entropy=       -1.94978577  energy(sigma->0) =       -1.94978577
 
 d Force = 0.4137334E-07[ 0.183E-07, 0.645E-07]  d Energy = 0.6182339E-03-0.618E-03
 d Force =-0.1725802E-20[ 0.155E-19,-0.189E-19]  d Ewald  = 0.3065478E+00-0.307E+00


--------------------------------------------------------------------------------------------------------


    POTLOK:  cpu time    0.3649: real time    0.3655


--------------------------------------------------------------------------------------------------------


 stress matrix after NEB project (eV)
     -0.00105     -0.00170     -0.00131
     -0.00170      0.00114      0.00121
     -0.00131      0.00121     -0.00479
  FORCES: max atom, RMS     0.000147    0.000147
  FORCE total and by dimension    0.000147    0.000123
  Stress total and by dimension    0.006121    0.004791
 Conjugate gradient step on ions:
 trial-energy change:   -0.000618  1 .order   -0.000122   -0.000203   -0.000040
  (g-gl).g = 0.972E-05      g.g   = 0.110E-04  gl.gl    = 0.487E-03
 g(Force)  = 0.352E-08   g(Stress)= 0.110E-04 ortho     = 0.129E-05
 gamma     =   0.01995
 trial     =  18.42765
 opt step  =  18.65841  (harmonic =  22.92003) maximal distance =0.00000000
 next E    =    -1.949786   (d E  =  -0.00062)


--------------------------------------------------------------------------------------------------------


  
 reached required accuracy - stopping structural energy minimisation
     LOOP+:  cpu time   17.2234: real time   17.2325
    4ORBIT:  cpu time    0.0000: real time    0.0000

 total amount of memory used by VASP MPI-rank0    71772. kBytes
=======================================================================

   base      :      30000. kBytes
   nonlr-proj:       1614. kBytes
   fftplans  :      11740. kBytes
   grid      :      27947. kBytes
   one-center:         46. kBytes
   wavefun   :        425. kBytes
 
  
  
 General timing and accounting informations for this job:
 ========================================================
  
                  Total CPU time used (sec):      295.924
                            User time (sec):      291.891
                          System time (sec):        4.033
                         Elapsed time (sec):      296.876
  
                   Maximum memory used (kb):      365356.
                   Average memory used (kb):           0.
  
                          Minor page faults:       361752
                          Major page faults:            0
                 Voluntary context switches:         1896
