<?xml version="1.0" encoding="ISO-8859-1"?>
<modeling>
 <generator>
  <i name="program" type="string">vasp </i>
  <i name="version" type="string">5.4.4.18Apr17-6-g9f103f2a35  </i>
  <i name="subversion" type="string">(build May 21 2019 18:55:53) complex            parallel </i>
  <i name="platform" type="string">IFC19_impi </i>
  <i name="date" type="string">2025 07 23 </i>
  <i name="time" type="string">15:35:46 </i>
 </generator>
 <incar>
  <i type="string" name="SYSTEM"> Co–organic framework</i>
  <i type="string" name="PREC">accurate   (precision level)</i>
  <i type="string" name="ALGO"> Fast       (SCF minimisation algorithm</i>
  <i type="int" name="ISPIN">     2</i>
  <i type="int" name="NELM">   100</i>
  <i type="int" name="NELMIN">     5</i>
  <i type="int" name="IBRION">     2</i>
  <i name="EDIFF">      0.00000100</i>
  <i name="EDIFFG">     -0.00500000</i>
  <i type="int" name="NSW">  1000</i>
  <i type="int" name="ISIF">     3</i>
  <i type="int" name="ISYM">     0</i>
  <i type="int" name="NBLOCK">     1</i>
  <i name="ENCUT">    520.00000000</i>
  <v name="MAGMOM">      0.00000000</v>
  <i type="string" name="LREAL"> Auto       (Projection operators: autom</i>
  <i type="int" name="ISMEAR">     0</i>
  <i name="SIGMA">      0.05000000</i>
  <i type="logical" name="LWAVE"> F  </i>
  <i type="logical" name="LCHARG"> T  </i>
  <v type="int" name="KPOINT_BSE">    -1     0     0     0</v>
  <i type="int" name="NELM">   100</i>
 </incar>
 <structure name="primitive_cell" >
  <crystal>
   <varray name="basis" >
    <v>       9.81384659       0.00000000       0.00000000 </v>
    <v>      -4.62821701       8.65396974       0.00000000 </v>
    <v>      -4.47039333       2.67874618      11.57660308 </v>
   </varray>
   <i name="volume">    983.18621292 </i>
   <varray name="rec_basis" >
    <v>       0.10189684       0.05449530       0.02673840 </v>
    <v>       0.00000000       0.11555391      -0.02673838 </v>
    <v>       0.00000000       0.00000000       0.08638113 </v>
   </varray>
  </crystal>
  <varray name="positions" >
   <v>       0.48852700       0.48454300      -0.40031600 </v>
  </varray>
 </structure>
 <varray name="primitive_index" >
  <v type="int" >        1 </v>
 </varray>
 <kpoints>
  <generation param="Gamma">
   <v type="int" name="divisions">       1        1        1 </v>
   <v name="usershift">      0.00000000       0.00000000       0.00000000 </v>
   <v name="genvec1">      1.00000000       0.00000000       0.00000000 </v>
   <v name="genvec2">      0.00000000       1.00000000       0.00000000 </v>
   <v name="genvec3">      0.00000000       0.00000000       1.00000000 </v>
   <v name="shift">      0.00000000       0.00000000       0.00000000 </v>
  </generation>
  <varray name="kpointlist" >
   <v>       0.00000000       0.00000000       0.00000000 </v>
  </varray>
  <varray name="weights" >
   <v>       1.00000000 </v>
  </varray>
 </kpoints>
 <parameters>
  <separator name="general" >
   <i type="string" name="SYSTEM">Co–organic framework</i>
   <i type="logical" name="LCOMPAT"> F  </i>
  </separator>
  <separator name="electronic" >
   <i type="string" name="PREC">accura</i>
   <i name="ENMAX">    520.00000000</i>
   <i name="ENAUG">   1139.60900000</i>
   <i name="EDIFF">      0.00000100</i>
   <i type="int" name="IALGO">    68</i>
   <i type="int" name="IWAVPR">    11</i>
   <i type="int" name="NBANDS">    12</i>
   <i name="NELECT">      6.00000000</i>
   <i type="int" name="TURBO">     0</i>
   <i type="int" name="IRESTART">     0</i>
   <i type="int" name="NREBOOT">     0</i>
   <i type="int" name="NMIN">     0</i>
   <i name="EREF">      0.00000000</i>
   <separator name="electronic smearing" >
    <i type="int" name="ISMEAR">     0</i>
    <i name="SIGMA">      0.05000000</i>
    <i name="KSPACING">      0.50000000</i>
    <i type="logical" name="KGAMMA"> T  </i>
   </separator>
   <separator name="electronic projectors" >
    <i type="logical" name="LREAL"> T  </i>
    <v name="ROPT">     -0.00025000</v>
    <i type="int" name="LMAXPAW">  -100</i>
    <i type="int" name="LMAXMIX">     2</i>
    <i type="logical" name="NLSPLINE"> F  </i>
   </separator>
   <separator name="electronic startup" >
    <i type="int" name="ISTART">     0</i>
    <i type="int" name="ICHARG">     2</i>
    <i type="int" name="INIWAV">     1</i>
   </separator>
   <separator name="electronic spin" >
    <i type="int" name="ISPIN">     2</i>
    <i type="logical" name="LNONCOLLINEAR"> F  </i>
    <v name="MAGMOM">      0.00000000</v>
    <i name="NUPDOWN">     -1.00000000</i>
    <i type="logical" name="LSORBIT"> F  </i>
    <v name="SAXIS">      0.00000000      0.00000000      1.00000000</v>
    <i type="logical" name="LSPIRAL"> F  </i>
    <v name="QSPIRAL">      0.00000000      0.00000000      0.00000000</v>
    <i type="logical" name="LZEROZ"> F  </i>
   </separator>
   <separator name="electronic exchange-correlation" >
    <i type="logical" name="LASPH"> F  </i>
    <i type="logical" name="LMETAGGA"> F  </i>
   </separator>
   <separator name="electronic convergence" >
    <i type="int" name="NELM">   100</i>
    <i type="int" name="NELMDL">     0</i>
    <i type="int" name="NELMIN">     5</i>
    <i name="ENINI">    520.00000000</i>
    <separator name="electronic convergence detail" >
     <i type="logical" name="LDIAG"> T  </i>
     <i type="logical" name="LSUBROT"> F  </i>
     <i name="WEIMIN">      0.00100000</i>
     <i name="EBREAK">      0.00000002</i>
     <i name="DEPER">      0.30000000</i>
     <i type="int" name="NRMM">     4</i>
     <i name="TIME">      0.40000000</i>
    </separator>
   </separator>
   <separator name="electronic mixer" >
    <i name="AMIX">      0.40000000</i>
    <i name="BMIX">      1.00000000</i>
    <i name="AMIN">      0.10000000</i>
    <i name="AMIX_MAG">      1.60000000</i>
    <i name="BMIX_MAG">      1.00000000</i>
    <separator name="electronic mixer details" >
     <i type="int" name="IMIX">     4</i>
     <i type="logical" name="MIXFIRST"> F  </i>
     <i type="int" name="MAXMIX">   -45</i>
     <i name="WC">    100.00000000</i>
     <i type="int" name="INIMIX">     1</i>
     <i type="int" name="MIXPRE">     1</i>
     <i type="int" name="MREMOVE">     5</i>
    </separator>
   </separator>
   <separator name="electronic dipolcorrection" >
    <i type="logical" name="LDIPOL"> F  </i>
    <i type="logical" name="LMONO"> F  </i>
    <i type="int" name="IDIPOL">     0</i>
    <i name="EPSILON">      1.00000000</i>
    <v name="DIPOL">   -100.00000000   -100.00000000   -100.00000000</v>
    <i name="EFIELD">      0.00000000</i>
   </separator>
  </separator>
  <separator name="grids" >
   <i type="int" name="NGX">    80</i>
   <i type="int" name="NGY">    80</i>
   <i type="int" name="NGZ">    96</i>
   <i type="int" name="NGXF">   160</i>
   <i type="int" name="NGYF">   160</i>
   <i type="int" name="NGZF">   192</i>
   <i type="logical" name="ADDGRID"> F  </i>
  </separator>
  <separator name="ionic" >
   <i type="int" name="NSW">  1000</i>
   <i type="int" name="IBRION">     2</i>
   <i type="int" name="MDALGO">     0</i>
   <i type="int" name="ISIF">     3</i>
   <i name="PSTRESS">      0.00000000</i>
   <i name="EDIFFG">     -0.00500000</i>
   <i type="int" name="NFREE">     1</i>
   <i name="POTIM">      0.50000000</i>
   <i name="SMASS">     -3.00000000</i>
   <i name="SCALEE">      1.00000000</i>
  </separator>
  <separator name="ionic md" >
   <i name="TEBEG">      0.00010000</i>
   <i name="TEEND">      0.00010000</i>
   <i type="int" name="NBLOCK">     1</i>
   <i type="int" name="KBLOCK">  1000</i>
   <i type="int" name="NPACO">   256</i>
   <i name="APACO">     16.00000000</i>
  </separator>
  <separator name="symmetry" >
   <i type="int" name="ISYM">     0</i>
   <i name="SYMPREC">      0.00001000</i>
  </separator>
  <separator name="dos" >
   <i type="int" name="LORBIT">     0</i>
   <v name="RWIGS">     -1.00000000</v>
   <i type="int" name="NEDOS">   301</i>
   <i name="EMIN">     10.00000000</i>
   <i name="EMAX">    -10.00000000</i>
   <i name="EFERMI">      0.00000000</i>
  </separator>
  <separator name="writing" >
   <i type="int" name="NWRITE">     2</i>
   <i type="logical" name="LWAVE"> F  </i>
   <i type="logical" name="LDOWNSAMPLE"> F  </i>
   <i type="logical" name="LCHARG"> T  </i>
   <i type="logical" name="LPARD"> F  </i>
   <i type="logical" name="LVTOT"> F  </i>
   <i type="logical" name="LVHAR"> F  </i>
   <i type="logical" name="LELF"> F  </i>
   <i type="logical" name="LOPTICS"> F  </i>
   <v name="STM">      0.00000000      0.00000000      0.00000000      0.00000000      0.00000000      0.00000000      0.00000000</v>
  </separator>
  <separator name="performance" >
   <i type="int" name="NPAR">     6</i>
   <i type="int" name="NSIM">     4</i>
   <i type="int" name="NBLK">    -1</i>
   <i type="logical" name="LPLANE"> T  </i>
   <i type="logical" name="LSCALAPACK"> F  </i>
   <i type="logical" name="LSCAAWARE"> F  </i>
   <i type="logical" name="LSCALU"> F  </i>
   <i type="logical" name="LASYNC"> F  </i>
   <i type="logical" name="LORBITALREAL"> F  </i>
  </separator>
  <separator name="miscellaneous" >
   <i type="int" name="IDIOT">     3</i>
   <i type="int" name="ISPECIAL">     0</i>
   <i type="logical" name="LMUSIC"> F  </i>
   <v name="POMASS">     16.00000000</v>
   <v name="DARWINR">      0.00000000</v>
   <v name="DARWINV">      1.00000000</v>
   <i type="logical" name="LCORR"> T  </i>
  </separator>
  <i type="logical" name="GGA_COMPAT"> T  </i>
  <i type="logical" name="LBERRY"> F  </i>
  <i type="int" name="ICORELEVEL">     0</i>
  <i type="logical" name="LDAU"> F  </i>
  <i type="int" name="I_CONSTRAINED_M">     0</i>
  <separator name="electronic exchange-correlation" >
   <i type="string" name="GGA">--</i>
   <i type="int" name="VOSKOWN">     0</i>
   <i type="logical" name="LHFCALC"> F  </i>
   <i type="string" name="PRECFOCK"></i>
   <i type="logical" name="LSYMGRAD"> F  </i>
   <i type="logical" name="LHFONE"> F  </i>
   <i type="logical" name="LRHFCALC"> F  </i>
   <i type="logical" name="LTHOMAS"> F  </i>
   <i type="logical" name="LMODELHF"> F  </i>
   <i name="ENCUT4O">     -1.00000000</i>
   <i type="int" name="EXXOEP">     0</i>
   <i type="int" name="FOURORBIT">     0</i>
   <i name="AEXX">      0.00000000</i>
   <i name="HFALPHA">      0.00000000</i>
   <i name="MCALPHA">      0.00000000</i>
   <i name="ALDAX">      1.00000000</i>
   <i name="AGGAX">      1.00000000</i>
   <i name="ALDAC">      1.00000000</i>
   <i name="AGGAC">      1.00000000</i>
   <i type="int" name="NKREDX">     1</i>
   <i type="int" name="NKREDY">     1</i>
   <i type="int" name="NKREDZ">     1</i>
   <i type="logical" name="SHIFTRED"> F  </i>
   <i type="logical" name="ODDONLY"> F  </i>
   <i type="logical" name="EVENONLY"> F  </i>
   <i type="int" name="LMAXFOCK">     0</i>
   <i type="int" name="NMAXFOCKAE">     0</i>
   <i type="logical" name="LFOCKAEDFT"> F  </i>
   <i name="HFSCREEN">      0.00000000</i>
   <i name="HFSCREENC">      0.00000000</i>
   <i type="int" name="NBANDSGWLOW">     0</i>
  </separator>
  <separator name="vdW DFT" >
   <i type="logical" name="LUSE_VDW"> F  </i>
   <i name="Zab_VDW">     -0.84910000</i>
   <i name="PARAM1">      0.12340000</i>
   <i name="PARAM2">      1.00000000</i>
   <i name="PARAM3">      0.00000000</i>
  </separator>
  <separator name="model GW" >
   <i type="int" name="MODEL_GW">     0</i>
   <i name="MODEL_EPS0">    589.91172775</i>
   <i name="MODEL_ALPHA">      1.00000000</i>
  </separator>
  <separator name="linear response parameters" >
   <i type="logical" name="LEPSILON"> F  </i>
   <i type="logical" name="LRPA"> F  </i>
   <i type="logical" name="LNABLA"> F  </i>
   <i type="logical" name="LVEL"> F  </i>
   <i type="int" name="KINTER">     0</i>
   <i name="CSHIFT">      0.10000000</i>
   <i name="OMEGAMAX">     -1.00000000</i>
   <i name="DEG_THRESHOLD">      0.00200000</i>
   <i name="RTIME">     -0.10000000</i>
   <i name="WPLASMAI">      0.00000000</i>
   <v name="DFIELD">      0.00000000      0.00000000      0.00000000</v>
   <v name="WPLASMA">      0.00000000      0.00000000      0.00000000      0.00000000      0.00000000      0.00000000      0.00000000      0.00000000      0.00000000</v>
  </separator>
  <separator name="orbital magnetization" >
   <i type="logical" name="NUCIND"> F  </i>
   <v name="MAGPOS">      0.00000000      0.00000000      0.00000000</v>
   <i type="logical" name="LNICSALL"> T  </i>
   <i type="logical" name="ORBITALMAG"> F  </i>
   <i type="logical" name="LMAGBLOCH"> F  </i>
   <i type="logical" name="LCHIMAG"> F  </i>
   <i type="logical" name="LGAUGE"> T  </i>
   <i type="int" name="MAGATOM">     0</i>
   <v name="MAGDIPOL">      0.00000000      0.00000000      0.00000000</v>
   <v name="AVECCONST">      0.00000000      0.00000000      0.00000000</v>
  </separator>
  <separator name="response functions" >
   <i type="logical" name="LADDER"> F  </i>
   <i type="logical" name="LRPAFORCE"> F  </i>
   <i type="logical" name="LFXC"> F  </i>
   <i type="logical" name="LHARTREE"> T  </i>
   <i type="int" name="IBSE">     0</i>
   <v type="int" name="KPOINT">    -1     0     0     0</v>
   <i type="logical" name="LTCTE"> F  </i>
   <i type="logical" name="LTETE"> F  </i>
   <i type="logical" name="LTRIPLET"> F  </i>
   <i type="logical" name="LFXCEPS"> F  </i>
   <i type="logical" name="LFXHEG"> F  </i>
   <i type="int" name="NATURALO">     2</i>
   <i type="logical" name="L2ORDER"> F  </i>
   <i type="logical" name="LMP2LT"> F  </i>
   <i type="logical" name="LUSEW"> F  </i>
   <i name="ENCUTGW">     -2.00000000</i>
   <i name="ENCUTGWSOFT">     -2.00000000</i>
   <i name="ENCUTLF">     -1.00000000</i>
   <i type="int" name="LMAXMP2">    -1</i>
   <i name="SCISSOR">      0.00000000</i>
   <i type="int" name="NOMEGA">     0</i>
   <i type="int" name="NOMEGAR">     0</i>
   <i type="int" name="NBANDSGW">    -1</i>
   <i type="int" name="NBANDSO">    -1</i>
   <i type="int" name="NBANDSV">    -1</i>
   <i type="int" name="NELM">   100</i>
   <i type="int" name="NELMHF">     1</i>
   <i type="int" name="DIM">     3</i>
   <i type="int" name="ANTIRES">     0</i>
   <i name="OMEGAMAX">    -30.00000000</i>
   <i name="OMEGAMIN">    -30.00000000</i>
   <i name="OMEGATL">   -200.00000000</i>
   <i type="int" name="OMEGAGRID">   140</i>
   <i name="CSHIFT">     -0.10000000</i>
   <i type="logical" name="SELFENERGY"> F  </i>
   <i type="logical" name="LSPECTRAL"> F  </i>
   <i type="logical" name="LSPECTRALGW"> F  </i>
   <i type="logical" name="LSINGLES"> F  </i>
   <i type="logical" name="LFERMIGW"> F  </i>
   <i type="logical" name="ODDONLYGW"> F  </i>
   <i type="logical" name="EVENONLYGW"> F  </i>
   <i type="int" name="NKREDLFX">     1</i>
   <i type="int" name="NKREDLFY">     1</i>
   <i type="int" name="NKREDLFZ">     1</i>
   <i type="int" name="MAXMEM">  2800</i>
   <i type="int" name="TELESCOPE">     0</i>
   <i type="int" name="TAUPAR">     1</i>
   <i type="int" name="OMEGAPAR">    -1</i>
   <i name="LAMBDA">      1.00000000</i>
  </separator>
  <separator name="External order field" >
   <i name="OFIELD_KAPPA">      0.00000000</i>
   <v name="OFIELD_K">      0.00000000      0.00000000      0.00000000</v>
   <i name="OFIELD_Q6_NEAR">      0.00000000</i>
   <i name="OFIELD_Q6_FAR">      0.00000000</i>
   <i name="OFIELD_A">      0.00000000</i>
  </separator>
  <separator name="solvation model" >
   <i type="logical" name="LSOL"> F  </i>
  </separator>
 </parameters>
 <atominfo>
  <atoms>       1 </atoms>
  <types>       1 </types>
  <array name="atoms" >
   <dimension dim="1">ion</dimension>
   <field type="string">element</field>
   <field type="int">atomtype</field>
   <set>
    <rc><c>O </c><c>   1</c></rc>
   </set>
  </array>
  <array name="atomtypes" >
   <dimension dim="1">type</dimension>
   <field type="int">atomspertype</field>
   <field type="string">element</field>
   <field>mass</field>
   <field>valence</field>
   <field type="string">pseudopotential</field>
   <set>
    <rc><c>   1</c><c>O </c><c>     16.00000000</c><c>      6.00000000</c><c>  PAW_PBE O_GW_new 19Mar2012            </c></rc>
   </set>
  </array>
 </atominfo>
 <structure name="initialpos" >
  <crystal>
   <varray name="basis" >
    <v>       9.81384659       0.00000000       0.00000000 </v>
    <v>      -4.62821701       8.65396974       0.00000000 </v>
    <v>      -4.47039333       2.67874618      11.57660308 </v>
   </varray>
   <i name="volume">    983.18621292 </i>
   <varray name="rec_basis" >
    <v>       0.10189684       0.05449530       0.02673840 </v>
    <v>       0.00000000       0.11555391      -0.02673838 </v>
    <v>       0.00000000       0.00000000       0.08638113 </v>
   </varray>
  </crystal>
  <varray name="positions" >
   <v>       0.48852700       0.48454300       0.59968400 </v>
  </varray>
 </structure>
 <calculation>
  <scstep>
   <time name="dav">    0.19    0.19</time>
   <time name="total">    0.56    0.56</time>
   <energy>
    <i name="alphaZ">      0.06949813 </i>
    <i name="ewald">    -73.30427287 </i>
    <i name="hartreedc">   -300.87936786 </i>
    <i name="XCdc">     24.43532877 </i>
    <i name="pawpsdc">    349.15150731 </i>
    <i name="pawaedc">   -348.34814446 </i>
    <i name="eentropy">     -0.00140470 </i>
    <i name="bandstr">    -35.69764890 </i>
    <i name="atom">    432.35423390 </i>
    <i name="e_fr_energy">     47.77972933 </i>
    <i name="e_wo_entrp">     47.78113404 </i>
    <i name="e_0_energy">     47.78043168 </i>
   </energy>
  </scstep>
  <scstep>
   <time name="dav">    0.27    0.28</time>
   <time name="total">    0.27    0.28</time>
   <energy>
    <i name="e_fr_energy">      3.22948738 </i>
    <i name="e_wo_entrp">      3.22948966 </i>
    <i name="e_0_energy">      3.22948852 </i>
   </energy>
  </scstep>
  <scstep>
   <time name="dav">    0.16    0.16</time>
   <time name="total">    0.16    0.16</time>
   <energy>
    <i name="e_fr_energy">     -0.01329187 </i>
    <i name="e_wo_entrp">      0.05352168 </i>
    <i name="e_0_energy">      0.02011490 </i>
   </energy>
  </scstep>
  <scstep>
   <time name="dav">    0.16    0.16</time>
   <time name="total">    0.16    0.16</time>
   <energy>
    <i name="e_fr_energy">     -0.08718464 </i>
    <i name="e_wo_entrp">     -0.01005769 </i>
    <i name="e_0_energy">     -0.04862116 </i>
   </energy>
  </scstep>
  <scstep>
   <time name="dav">    0.22    0.22</time>
   <time name="total">    0.26    0.26</time>
   <energy>
    <i name="e_fr_energy">     -0.08934877 </i>
    <i name="e_wo_entrp">     -0.01221762 </i>
    <i name="e_0_energy">     -0.05078319 </i>
   </energy>
  </scstep>
  <scstep>
   <time name="diag">    0.04    0.04</time>
   <time name="diis">    0.15    0.15</time>
   <time name="orth">    0.00    0.00</time>
   <time name="total">    0.60    0.60</time>
   <energy>
    <i name="e_fr_energy">     -0.08902827 </i>
    <i name="e_wo_entrp">     -0.01190733 </i>
    <i name="e_0_energy">     -0.05046780 </i>
   </energy>
  </scstep>
  <scstep>
   <time name="diag">    0.04    0.04</time>
   <time name="diis">    0.16    0.16</time>
   <time name="orth">    0.00    0.00</time>
   <time name="total">    0.61    0.61</time>
   <energy>
    <i name="e_fr_energy">     -0.14633085 </i>
    <i name="e_wo_entrp">     -0.10830455 </i>
    <i name="e_0_energy">     -0.12731770 </i>
   </energy>
  </scstep>
  <scstep>
   <time name="diag">    0.04    0.04</time>
   <time name="diis">    0.15    0.15</time>
   <time name="orth">    0.00    0.00</time>
   <time name="total">    0.59    0.59</time>
   <energy>
    <i name="e_fr_energy">     -0.04283855 </i>
    <i name="e_wo_entrp">      0.03214905 </i>
    <i name="e_0_energy">     -0.00534475 </i>
   </energy>
  </scstep>
  <scstep>
   <time name="diag">    0.04    0.04</time>
   <time name="diis">    0.14    0.14</time>
   <time name="orth">    0.00    0.00</time>
   <time name="total">    0.59    0.59</time>
   <energy>
    <i name="e_fr_energy">     -0.04942227 </i>
    <i name="e_wo_entrp">      0.02500721 </i>
    <i name="e_0_energy">     -0.01220753 </i>
   </energy>
  </scstep>
  <scstep>
   <time name="diag">    0.04    0.04</time>
   <time name="diis">    0.14    0.14</time>
   <time name="orth">    0.00    0.00</time>
   <time name="total">    0.59    0.59</time>
   <energy>
    <i name="e_fr_energy">     -0.03082149 </i>
    <i name="e_wo_entrp">      0.04516268 </i>
    <i name="e_0_energy">      0.00717060 </i>
   </energy>
  </scstep>
  <scstep>
   <time name="diag">    0.04    0.04</time>
   <time name="diis">    0.14    0.14</time>
   <time name="orth">    0.00    0.00</time>
   <time name="total">    0.59    0.59</time>
   <energy>
    <i name="e_fr_energy">     -0.06294853 </i>
    <i name="e_wo_entrp">      0.01149339 </i>
    <i name="e_0_energy">     -0.02572757 </i>
   </energy>
  </scstep>
  <scstep>
   <time name="diag">    0.04    0.04</time>
   <time name="diis">    0.14    0.14</time>
   <time name="orth">    0.00    0.00</time>
   <time name="total">    0.59    0.59</time>
   <energy>
    <i name="e_fr_energy">     -0.04392657 </i>
    <i name="e_wo_entrp">      0.03252190 </i>
    <i name="e_0_energy">     -0.00570234 </i>
   </energy>
  </scstep>
  <scstep>
   <time name="diag">    0.04    0.04</time>
   <time name="diis">    0.14    0.14</time>
   <time name="orth">    0.00    0.00</time>
   <time name="total">    0.59    0.59</time>
   <energy>
    <i name="e_fr_energy">     -0.08153024 </i>
    <i name="e_wo_entrp">     -0.00791927 </i>
    <i name="e_0_energy">     -0.04472475 </i>
   </energy>
  </scstep>
  <scstep>
   <time name="diag">    0.04    0.04</time>
   <time name="diis">    0.14    0.15</time>
   <time name="orth">    0.00    0.00</time>
   <time name="total">    0.59    0.59</time>
   <energy>
    <i name="e_fr_energy">     -0.00670358 </i>
    <i name="e_wo_entrp">      0.06970610 </i>
    <i name="e_0_energy">      0.03150126 </i>
   </energy>
  </scstep>
  <scstep>
   <time name="diag">    0.04    0.04</time>
   <time name="diis">    0.14    0.14</time>
   <time name="orth">    0.00    0.00</time>
   <time name="total">    0.59    0.59</time>
   <energy>
    <i name="e_fr_energy">     -0.06964411 </i>
    <i name="e_wo_entrp">      0.00700588 </i>
    <i name="e_0_energy">     -0.03131912 </i>
   </energy>
  </scstep>
  <scstep>
   <time name="diag">    0.04    0.04</time>
   <time name="diis">    0.14    0.14</time>
   <time name="orth">    0.00    0.00</time>
   <time name="total">    0.59    0.59</time>
   <energy>
    <i name="e_fr_energy">     -0.08346674 </i>
    <i name="e_wo_entrp">     -0.00866657 </i>
    <i name="e_0_energy">     -0.04606665 </i>
   </energy>
  </scstep>
  <scstep>
   <time name="diag">    0.04    0.04</time>
   <time name="diis">    0.14    0.14</time>
   <time name="orth">    0.00    0.00</time>
   <time name="total">    0.59    0.59</time>
   <energy>
    <i name="e_fr_energy">     -0.05407044 </i>
    <i name="e_wo_entrp">      0.02294584 </i>
    <i name="e_0_energy">     -0.01556230 </i>
   </energy>
  </scstep>
  <scstep>
   <time name="diag">    0.04    0.04</time>
   <time name="diis">    0.14    0.14</time>
   <time name="orth">    0.00    0.00</time>
   <time name="total">    0.59    0.59</time>
   <energy>
    <i name="e_fr_energy">     -0.08580914 </i>
    <i name="e_wo_entrp">     -0.00881517 </i>
    <i name="e_0_energy">     -0.04731216 </i>
   </energy>
  </scstep>
  <scstep>
   <time name="diag">    0.04    0.04</time>
   <time name="diis">    0.14    0.14</time>
   <time name="orth">    0.00    0.00</time>
   <time name="total">    0.59    0.59</time>
   <energy>
    <i name="e_fr_energy">     -0.08662569 </i>
    <i name="e_wo_entrp">     -0.00968411 </i>
    <i name="e_0_energy">     -0.04815490 </i>
   </energy>
  </scstep>
  <scstep>
   <time name="diag">    0.04    0.04</time>
   <time name="diis">    0.14    0.14</time>
   <time name="orth">    0.00    0.00</time>
   <time name="total">    0.59    0.59</time>
   <energy>
    <i name="e_fr_energy">     -0.08426345 </i>
    <i name="e_wo_entrp">     -0.00730054 </i>
    <i name="e_0_energy">     -0.04578200 </i>
   </energy>
  </scstep>
  <scstep>
   <time name="diag">    0.04    0.04</time>
   <time name="diis">    0.14    0.14</time>
   <time name="orth">    0.00    0.00</time>
   <time name="total">    0.59    0.59</time>
   <energy>
    <i name="e_fr_energy">     -0.08484947 </i>
    <i name="e_wo_entrp">     -0.00776203 </i>
    <i name="e_0_energy">     -0.04630575 </i>
   </energy>
  </scstep>
  <scstep>
   <time name="diag">    0.04    0.04</time>
   <time name="diis">    0.14    0.14</time>
   <time name="orth">    0.00    0.00</time>
   <time name="total">    0.59    0.59</time>
   <energy>
    <i name="e_fr_energy">     -0.08682978 </i>
    <i name="e_wo_entrp">     -0.00970928 </i>
    <i name="e_0_energy">     -0.04826953 </i>
   </energy>
  </scstep>
  <scstep>
   <time name="diag">    0.04    0.04</time>
   <time name="diis">    0.14    0.14</time>
   <time name="orth">    0.00    0.00</time>
   <time name="total">    0.59    0.59</time>
   <energy>
    <i name="e_fr_energy">     -0.08860965 </i>
    <i name="e_wo_entrp">     -0.01148407 </i>
    <i name="e_0_energy">     -0.05004686 </i>
   </energy>
  </scstep>
  <scstep>
   <time name="diag">    0.04    0.04</time>
   <time name="diis">    0.14    0.14</time>
   <time name="orth">    0.00    0.00</time>
   <time name="total">    0.59    0.59</time>
   <energy>
    <i name="e_fr_energy">     -0.08924613 </i>
    <i name="e_wo_entrp">     -0.01212107 </i>
    <i name="e_0_energy">     -0.05068360 </i>
   </energy>
  </scstep>
  <scstep>
   <time name="diag">    0.04    0.04</time>
   <time name="diis">    0.14    0.14</time>
   <time name="orth">    0.00    0.00</time>
   <time name="total">    0.59    0.59</time>
   <energy>
    <i name="e_fr_energy">     -0.08903163 </i>
    <i name="e_wo_entrp">     -0.01190435 </i>
    <i name="e_0_energy">     -0.05046799 </i>
   </energy>
  </scstep>
  <scstep>
   <time name="diag">    0.04    0.04</time>
   <time name="diis">    0.13    0.13</time>
   <time name="orth">    0.00    0.00</time>
   <time name="total">    0.58    0.58</time>
   <energy>
    <i name="e_fr_energy">     -0.08905092 </i>
    <i name="e_wo_entrp">     -0.01192138 </i>
    <i name="e_0_energy">     -0.05048615 </i>
   </energy>
  </scstep>
  <scstep>
   <time name="diag">    0.04    0.04</time>
   <time name="diis">    0.13    0.13</time>
   <time name="orth">    0.00    0.00</time>
   <time name="total">    0.58    0.58</time>
   <energy>
    <i name="e_fr_energy">     -0.08919012 </i>
    <i name="e_wo_entrp">     -0.01205919 </i>
    <i name="e_0_energy">     -0.05062465 </i>
   </energy>
  </scstep>
  <scstep>
   <time name="diag">    0.04    0.04</time>
   <time name="diis">    0.14    0.14</time>
   <time name="orth">    0.00    0.00</time>
   <time name="total">    0.59    0.59</time>
   <energy>
    <i name="e_fr_energy">     -0.08936935 </i>
    <i name="e_wo_entrp">     -0.01223860 </i>
    <i name="e_0_energy">     -0.05080397 </i>
   </energy>
  </scstep>
  <scstep>
   <time name="diag">    0.04    0.04</time>
   <time name="diis">    0.14    0.14</time>
   <time name="orth">    0.00    0.00</time>
   <time name="total">    0.59    0.59</time>
   <energy>
    <i name="e_fr_energy">     -0.08933903 </i>
    <i name="e_wo_entrp">     -0.01220818 </i>
    <i name="e_0_energy">     -0.05077360 </i>
   </energy>
  </scstep>
  <scstep>
   <time name="diag">    0.04    0.04</time>
   <time name="diis">    0.12    0.12</time>
   <time name="orth">    0.00    0.00</time>
   <time name="total">    0.58    0.58</time>
   <energy>
    <i name="e_fr_energy">     -0.08933198 </i>
    <i name="e_wo_entrp">     -0.01220092 </i>
    <i name="e_0_energy">     -0.05076645 </i>
   </energy>
  </scstep>
  <scstep>
   <time name="diag">    0.04    0.04</time>
   <time name="diis">    0.12    0.12</time>
   <time name="orth">    0.00    0.00</time>
   <time name="total">    0.58    0.58</time>
   <energy>
    <i name="e_fr_energy">     -0.08935863 </i>
    <i name="e_wo_entrp">     -0.01222749 </i>
    <i name="e_0_energy">     -0.05079306 </i>
   </energy>
  </scstep>
  <scstep>
   <time name="diag">    0.04    0.04</time>
   <time name="diis">    0.12    0.12</time>
   <time name="orth">    0.00    0.00</time>
   <time name="total">    0.57    0.57</time>
   <energy>
    <i name="e_fr_energy">     -0.08938230 </i>
    <i name="e_wo_entrp">     -0.01225114 </i>
    <i name="e_0_energy">     -0.05081672 </i>
   </energy>
  </scstep>
  <scstep>
   <time name="diag">    0.04    0.04</time>
   <time name="diis">    0.12    0.13</time>
   <time name="orth">    0.00    0.00</time>
   <time name="total">    0.58    0.58</time>
   <energy>
    <i name="e_fr_energy">     -0.08939101 </i>
    <i name="e_wo_entrp">     -0.01225985 </i>
    <i name="e_0_energy">     -0.05082543 </i>
   </energy>
  </scstep>
  <scstep>
   <time name="diag">    0.04    0.04</time>
   <time name="diis">    0.12    0.12</time>
   <time name="orth">    0.00    0.00</time>
   <time name="total">    0.52    0.52</time>
   <energy>
    <i name="alphaZ">      0.06949813 </i>
    <i name="ewald">    -73.30427287 </i>
    <i name="hartreedc">   -300.85526610 </i>
    <i name="XCdc">     24.43563049 </i>
    <i name="pawpsdc">    296.12867894 </i>
    <i name="pawaedc">   -295.34098078 </i>
    <i name="eentropy">     -0.07713116 </i>
    <i name="bandstr">    -83.49978245 </i>
    <i name="atom">    432.35423390 </i>
    <i name="e_fr_energy">     -0.08939190 </i>
    <i name="e_wo_entrp">     -0.01226074 </i>
    <i name="e_0_energy">     -0.05082632 </i>
   </energy>
  </scstep>
  <structure>
   <crystal>
    <varray name="basis" >
     <v>       9.81384659       0.00000000       0.00000000 </v>
     <v>      -4.62821701       8.65396974       0.00000000 </v>
     <v>      -4.47039333       2.67874618      11.57660308 </v>
    </varray>
    <i name="volume">    983.18621292 </i>
    <varray name="rec_basis" >
     <v>       0.10189684       0.05449530       0.02673840 </v>
     <v>       0.00000000       0.11555391      -0.02673838 </v>
     <v>       0.00000000       0.00000000       0.08638113 </v>
    </varray>
   </crystal>
   <varray name="positions" >
    <v>       0.48852700       0.48454300       0.59968400 </v>
   </varray>
  </structure>
  <varray name="forces" >
   <v>       0.00009359      -0.00000667      -0.00042349 </v>
  </varray>
  <varray name="stress" >
   <v>      -0.09460679      -0.00066617      -0.00040951 </v>
   <v>      -0.00066613      -0.09421826       0.00059129 </v>
   <v>      -0.00040960       0.00059122      -0.09473483 </v>
  </varray>
  <energy>
   <i name="e_fr_energy">     -0.08943464 </i>
   <i name="e_wo_entrp">     -0.05086906 </i>
   <i name="e_0_energy">     -0.07713116 </i>
  </energy>
  <time name="totalsc">   28.21   28.45</time>
 </calculation>
 <calculation>
  <scstep>
   <time name="dav">    0.16    0.16</time>
   <time name="total">    0.57    0.57</time>
   <energy>
    <i name="alphaZ">      0.07008483 </i>
    <i name="ewald">    -73.51011000 </i>
    <i name="hartreedc">   -301.69919074 </i>
    <i name="XCdc">     24.50172615 </i>
    <i name="pawpsdc">    296.12872607 </i>
    <i name="pawaedc">   -295.34102754 </i>
    <i name="eentropy">     -0.07713072 </i>
    <i name="bandstr">    -82.52043189 </i>
    <i name="atom">    432.35423390 </i>
    <i name="e_fr_energy">     -0.09311994 </i>
    <i name="e_wo_entrp">     -0.01598922 </i>
    <i name="e_0_energy">     -0.05455458 </i>
   </energy>
  </scstep>
  <scstep>
   <time name="diag">    0.04    0.04</time>
   <time name="diis">    0.14    0.14</time>
   <time name="orth">    0.00    0.00</time>
   <time name="total">    0.58    0.58</time>
   <energy>
    <i name="e_fr_energy">     -0.08993935 </i>
    <i name="e_wo_entrp">     -0.01282936 </i>
    <i name="e_0_energy">     -0.05138435 </i>
   </energy>
  </scstep>
  <scstep>
   <time name="diag">    0.04    0.04</time>
   <time name="diis">    0.16    0.16</time>
   <time name="orth">    0.00    0.00</time>
   <time name="total">    0.60    0.60</time>
   <energy>
    <i name="e_fr_energy">     -0.09110066 </i>
    <i name="e_wo_entrp">     -0.01534686 </i>
    <i name="e_0_energy">     -0.05322376 </i>
   </energy>
  </scstep>
  <scstep>
   <time name="diag">    0.04    0.04</time>
   <time name="diis">    0.14    0.14</time>
   <time name="orth">    0.00    0.00</time>
   <time name="total">    0.59    0.59</time>
   <energy>
    <i name="e_fr_energy">     -0.09240936 </i>
    <i name="e_wo_entrp">     -0.02675320 </i>
    <i name="e_0_energy">     -0.05958128 </i>
   </energy>
  </scstep>
  <scstep>
   <time name="diag">    0.04    0.04</time>
   <time name="diis">    0.15    0.15</time>
   <time name="orth">    0.00    0.00</time>
   <time name="total">    0.59    0.59</time>
   <energy>
    <i name="e_fr_energy">      0.10948768 </i>
    <i name="e_wo_entrp">      0.18519106 </i>
    <i name="e_0_energy">      0.14733937 </i>
   </energy>
  </scstep>
  <scstep>
   <time name="diag">    0.04    0.04</time>
   <time name="diis">    0.14    0.14</time>
   <time name="orth">    0.00    0.00</time>
   <time name="total">    0.59    0.59</time>
   <energy>
    <i name="e_fr_energy">     -0.04012678 </i>
    <i name="e_wo_entrp">      0.03660942 </i>
    <i name="e_0_energy">     -0.00175868 </i>
   </energy>
  </scstep>
  <scstep>
   <time name="diag">    0.04    0.04</time>
   <time name="diis">    0.14    0.14</time>
   <time name="orth">    0.00    0.00</time>
   <time name="total">    0.59    0.59</time>
   <energy>
    <i name="e_fr_energy">     -0.07378772 </i>
    <i name="e_wo_entrp">      0.00320037 </i>
    <i name="e_0_energy">     -0.03529368 </i>
   </energy>
  </scstep>
  <scstep>
   <time name="diag">    0.04    0.04</time>
   <time name="diis">    0.14    0.14</time>
   <time name="orth">    0.00    0.00</time>
   <time name="total">    0.58    0.58</time>
   <energy>
    <i name="e_fr_energy">     -0.08232513 </i>
    <i name="e_wo_entrp">     -0.00556310 </i>
    <i name="e_0_energy">     -0.04394411 </i>
   </energy>
  </scstep>
  <scstep>
   <time name="diag">    0.04    0.04</time>
   <time name="diis">    0.14    0.14</time>
   <time name="orth">    0.00    0.00</time>
   <time name="total">    0.59    0.59</time>
   <energy>
    <i name="e_fr_energy">     -0.08178202 </i>
    <i name="e_wo_entrp">     -0.00476852 </i>
    <i name="e_0_energy">     -0.04327527 </i>
   </energy>
  </scstep>
  <scstep>
   <time name="diag">    0.04    0.04</time>
   <time name="diis">    0.14    0.14</time>
   <time name="orth">    0.00    0.00</time>
   <time name="total">    0.58    0.58</time>
   <energy>
    <i name="e_fr_energy">     -0.08700493 </i>
    <i name="e_wo_entrp">     -0.01018121 </i>
    <i name="e_0_energy">     -0.04859307 </i>
   </energy>
  </scstep>
  <scstep>
   <time name="diag">    0.04    0.04</time>
   <time name="diis">    0.14    0.14</time>
   <time name="orth">    0.00    0.00</time>
   <time name="total">    0.58    0.59</time>
   <energy>
    <i name="e_fr_energy">     -0.08554751 </i>
    <i name="e_wo_entrp">     -0.00855500 </i>
    <i name="e_0_energy">     -0.04705126 </i>
   </energy>
  </scstep>
  <scstep>
   <time name="diag">    0.04    0.04</time>
   <time name="diis">    0.14    0.14</time>
   <time name="orth">    0.00    0.00</time>
   <time name="total">    0.58    0.58</time>
   <energy>
    <i name="e_fr_energy">     -0.08547500 </i>
    <i name="e_wo_entrp">     -0.00850576 </i>
    <i name="e_0_energy">     -0.04699038 </i>
   </energy>
  </scstep>
  <scstep>
   <time name="diag">    0.04    0.04</time>
   <time name="diis">    0.14    0.14</time>
   <time name="orth">    0.00    0.00</time>
   <time name="total">    0.59    0.59</time>
   <energy>
    <i name="e_fr_energy">     -0.08431667 </i>
    <i name="e_wo_entrp">     -0.00735541 </i>
    <i name="e_0_energy">     -0.04583604 </i>
   </energy>
  </scstep>
  <scstep>
   <time name="diag">    0.04    0.04</time>
   <time name="diis">    0.14    0.14</time>
   <time name="orth">    0.00    0.00</time>
   <time name="total">    0.58    0.59</time>
   <energy>
    <i name="e_fr_energy">     -0.08374670 </i>
    <i name="e_wo_entrp">     -0.00678429 </i>
    <i name="e_0_energy">     -0.04526550 </i>
   </energy>
  </scstep>
  <scstep>
   <time name="diag">    0.04    0.04</time>
   <time name="diis">    0.14    0.15</time>
   <time name="orth">    0.00    0.00</time>
   <time name="total">    0.59    0.59</time>
   <energy>
    <i name="e_fr_energy">     -0.08366953 </i>
    <i name="e_wo_entrp">     -0.00666370 </i>
    <i name="e_0_energy">     -0.04516662 </i>
   </energy>
  </scstep>
  <scstep>
   <time name="diag">    0.04    0.04</time>
   <time name="diis">    0.14    0.14</time>
   <time name="orth">    0.00    0.00</time>
   <time name="total">    0.59    0.59</time>
   <energy>
    <i name="e_fr_energy">     -0.08446303 </i>
    <i name="e_wo_entrp">     -0.00749132 </i>
    <i name="e_0_energy">     -0.04597717 </i>
   </energy>
  </scstep>
  <scstep>
   <time name="diag">    0.04    0.04</time>
   <time name="diis">    0.15    0.15</time>
   <time name="orth">    0.00    0.00</time>
   <time name="total">    0.59    0.59</time>
   <energy>
    <i name="e_fr_energy">     -0.08678394 </i>
    <i name="e_wo_entrp">     -0.00980978 </i>
    <i name="e_0_energy">     -0.04829686 </i>
   </energy>
  </scstep>
  <scstep>
   <time name="diag">    0.04    0.04</time>
   <time name="diis">    0.14    0.14</time>
   <time name="orth">    0.00    0.00</time>
   <time name="total">    0.59    0.59</time>
   <energy>
    <i name="e_fr_energy">     -0.08358149 </i>
    <i name="e_wo_entrp">     -0.00650879 </i>
    <i name="e_0_energy">     -0.04504514 </i>
   </energy>
  </scstep>
  <scstep>
   <time name="diag">    0.04    0.04</time>
   <time name="diis">    0.15    0.15</time>
   <time name="orth">    0.00    0.00</time>
   <time name="total">    0.59    0.59</time>
   <energy>
    <i name="e_fr_energy">     -0.08745161 </i>
    <i name="e_wo_entrp">     -0.01037572 </i>
    <i name="e_0_energy">     -0.04891367 </i>
   </energy>
  </scstep>
  <scstep>
   <time name="diag">    0.04    0.04</time>
   <time name="diis">    0.14    0.14</time>
   <time name="orth">    0.00    0.00</time>
   <time name="total">    0.59    0.59</time>
   <energy>
    <i name="e_fr_energy">     -0.08788701 </i>
    <i name="e_wo_entrp">     -0.01079604 </i>
    <i name="e_0_energy">     -0.04934152 </i>
   </energy>
  </scstep>
  <scstep>
   <time name="diag">    0.04    0.04</time>
   <time name="diis">    0.14    0.14</time>
   <time name="orth">    0.00    0.00</time>
   <time name="total">    0.58    0.59</time>
   <energy>
    <i name="e_fr_energy">     -0.08814648 </i>
    <i name="e_wo_entrp">     -0.01105163 </i>
    <i name="e_0_energy">     -0.04959905 </i>
   </energy>
  </scstep>
  <scstep>
   <time name="diag">    0.04    0.04</time>
   <time name="diis">    0.14    0.14</time>
   <time name="orth">    0.00    0.00</time>
   <time name="total">    0.59    0.59</time>
   <energy>
    <i name="e_fr_energy">     -0.08833352 </i>
    <i name="e_wo_entrp">     -0.01124337 </i>
    <i name="e_0_energy">     -0.04978844 </i>
   </energy>
  </scstep>
  <scstep>
   <time name="diag">    0.04    0.04</time>
   <time name="diis">    0.14    0.14</time>
   <time name="orth">    0.00    0.00</time>
   <time name="total">    0.59    0.59</time>
   <energy>
    <i name="e_fr_energy">     -0.08816222 </i>
    <i name="e_wo_entrp">     -0.01107439 </i>
    <i name="e_0_energy">     -0.04961830 </i>
   </energy>
  </scstep>
  <scstep>
   <time name="diag">    0.04    0.04</time>
   <time name="diis">    0.12    0.12</time>
   <time name="orth">    0.00    0.00</time>
   <time name="total">    0.57    0.57</time>
   <energy>
    <i name="e_fr_energy">     -0.08807071 </i>
    <i name="e_wo_entrp">     -0.01098612 </i>
    <i name="e_0_energy">     -0.04952842 </i>
   </energy>
  </scstep>
  <scstep>
   <time name="diag">    0.04    0.04</time>
   <time name="diis">    0.14    0.14</time>
   <time name="orth">    0.00    0.00</time>
   <time name="total">    0.59    0.59</time>
   <energy>
    <i name="e_fr_energy">     -0.08795195 </i>
    <i name="e_wo_entrp">     -0.01087417 </i>
    <i name="e_0_energy">     -0.04941306 </i>
   </energy>
  </scstep>
  <scstep>
   <time name="diag">    0.04    0.04</time>
   <time name="diis">    0.14    0.14</time>
   <time name="orth">    0.00    0.00</time>
   <time name="total">    0.59    0.59</time>
   <energy>
    <i name="e_fr_energy">     -0.08767386 </i>
    <i name="e_wo_entrp">     -0.01060298 </i>
    <i name="e_0_energy">     -0.04913842 </i>
   </energy>
  </scstep>
  <scstep>
   <time name="diag">    0.04    0.04</time>
   <time name="diis">    0.14    0.14</time>
   <time name="orth">    0.00    0.00</time>
   <time name="total">    0.59    0.59</time>
   <energy>
    <i name="e_fr_energy">     -0.08737165 </i>
    <i name="e_wo_entrp">     -0.01030082 </i>
    <i name="e_0_energy">     -0.04883623 </i>
   </energy>
  </scstep>
  <scstep>
   <time name="diag">    0.04    0.04</time>
   <time name="diis">    0.13    0.13</time>
   <time name="orth">    0.00    0.00</time>
   <time name="total">    0.58    0.58</time>
   <energy>
    <i name="e_fr_energy">     -0.08726949 </i>
    <i name="e_wo_entrp">     -0.01018802 </i>
    <i name="e_0_energy">     -0.04872875 </i>
   </energy>
  </scstep>
  <scstep>
   <time name="diag">    0.04    0.04</time>
   <time name="diis">    0.13    0.13</time>
   <time name="orth">    0.00    0.00</time>
   <time name="total">    0.58    0.58</time>
   <energy>
    <i name="e_fr_energy">     -0.08760009 </i>
    <i name="e_wo_entrp">     -0.01050216 </i>
    <i name="e_0_energy">     -0.04905112 </i>
   </energy>
  </scstep>
  <scstep>
   <time name="diag">    0.04    0.04</time>
   <time name="diis">    0.14    0.14</time>
   <time name="orth">    0.00    0.00</time>
   <time name="total">    0.59    0.59</time>
   <energy>
    <i name="e_fr_energy">     -0.08825393 </i>
    <i name="e_wo_entrp">     -0.01114305 </i>
    <i name="e_0_energy">     -0.04969849 </i>
   </energy>
  </scstep>
  <scstep>
   <time name="diag">    0.04    0.04</time>
   <time name="diis">    0.14    0.14</time>
   <time name="orth">    0.00    0.00</time>
   <time name="total">    0.59    0.59</time>
   <energy>
    <i name="e_fr_energy">     -0.08870917 </i>
    <i name="e_wo_entrp">     -0.01158489 </i>
    <i name="e_0_energy">     -0.05014703 </i>
   </energy>
  </scstep>
  <scstep>
   <time name="diag">    0.04    0.04</time>
   <time name="diis">    0.14    0.14</time>
   <time name="orth">    0.00    0.00</time>
   <time name="total">    0.59    0.59</time>
   <energy>
    <i name="e_fr_energy">     -0.08947760 </i>
    <i name="e_wo_entrp">     -0.01234782 </i>
    <i name="e_0_energy">     -0.05091271 </i>
   </energy>
  </scstep>
  <scstep>
   <time name="diag">    0.04    0.04</time>
   <time name="diis">    0.14    0.14</time>
   <time name="orth">    0.00    0.00</time>
   <time name="total">    0.59    0.59</time>
   <energy>
    <i name="e_fr_energy">     -0.08970184 </i>
    <i name="e_wo_entrp">     -0.01257119 </i>
    <i name="e_0_energy">     -0.05113652 </i>
   </energy>
  </scstep>
  <scstep>
   <time name="diag">    0.04    0.04</time>
   <time name="diis">    0.14    0.14</time>
   <time name="orth">    0.00    0.00</time>
   <time name="total">    0.59    0.59</time>
   <energy>
    <i name="e_fr_energy">     -0.08979544 </i>
    <i name="e_wo_entrp">     -0.01266502 </i>
    <i name="e_0_energy">     -0.05123023 </i>
   </energy>
  </scstep>
  <scstep>
   <time name="diag">    0.04    0.04</time>
   <time name="diis">    0.14    0.14</time>
   <time name="orth">    0.00    0.00</time>
   <time name="total">    0.59    0.59</time>
   <energy>
    <i name="e_fr_energy">     -0.08977662 </i>
    <i name="e_wo_entrp">     -0.01264613 </i>
    <i name="e_0_energy">     -0.05121137 </i>
   </energy>
  </scstep>
  <scstep>
   <time name="diag">    0.04    0.04</time>
   <time name="diis">    0.12    0.12</time>
   <time name="orth">    0.00    0.00</time>
   <time name="total">    0.58    0.58</time>
   <energy>
    <i name="e_fr_energy">     -0.08975428 </i>
    <i name="e_wo_entrp">     -0.01262342 </i>
    <i name="e_0_energy">     -0.05118885 </i>
   </energy>
  </scstep>
  <scstep>
   <time name="diag">    0.04    0.04</time>
   <time name="diis">    0.13    0.13</time>
   <time name="orth">    0.00    0.00</time>
   <time name="total">    0.58    0.59</time>
   <energy>
    <i name="e_fr_energy">     -0.08978794 </i>
    <i name="e_wo_entrp">     -0.01265681 </i>
    <i name="e_0_energy">     -0.05122237 </i>
   </energy>
  </scstep>
  <scstep>
   <time name="diag">    0.04    0.04</time>
   <time name="diis">    0.12    0.13</time>
   <time name="orth">    0.00    0.00</time>
   <time name="total">    0.58    0.58</time>
   <energy>
    <i name="e_fr_energy">     -0.08983654 </i>
    <i name="e_wo_entrp">     -0.01270538 </i>
    <i name="e_0_energy">     -0.05127096 </i>
   </energy>
  </scstep>
  <scstep>
   <time name="diag">    0.04    0.04</time>
   <time name="diis">    0.13    0.13</time>
   <time name="orth">    0.00    0.00</time>
   <time name="total">    0.58    0.58</time>
   <energy>
    <i name="e_fr_energy">     -0.08985495 </i>
    <i name="e_wo_entrp">     -0.01272380 </i>
    <i name="e_0_energy">     -0.05128937 </i>
   </energy>
  </scstep>
  <scstep>
   <time name="diag">    0.04    0.04</time>
   <time name="diis">    0.13    0.13</time>
   <time name="orth">    0.00    0.00</time>
   <time name="total">    0.52    0.52</time>
   <energy>
    <i name="alphaZ">      0.07008483 </i>
    <i name="ewald">    -73.51011000 </i>
    <i name="hartreedc">   -300.65476956 </i>
    <i name="XCdc">     24.43559388 </i>
    <i name="pawpsdc">    296.06166218 </i>
    <i name="pawaedc">   -295.27349695 </i>
    <i name="eentropy">     -0.07713113 </i>
    <i name="bandstr">    -83.49592160 </i>
    <i name="atom">    432.35423390 </i>
    <i name="e_fr_energy">     -0.08985444 </i>
    <i name="e_wo_entrp">     -0.01272331 </i>
    <i name="e_0_energy">     -0.05128888 </i>
   </energy>
  </scstep>
  <structure>
   <crystal>
    <varray name="basis" >
     <v>       9.78636018      -0.00019354      -0.00011898 </v>
     <v>      -4.61542506       8.62992270       0.00020759 </v>
     <v>      -4.45806595       2.67156520      11.54423679 </v>
    </varray>
    <i name="volume">    974.95580838 </i>
    <varray name="rec_basis" >
     <v>       0.10218444       0.05464928       0.02681389 </v>
     <v>       0.00000197       0.11587759      -0.02681561 </v>
     <v>       0.00000105      -0.00000152       0.08662407 </v>
    </varray>
   </crystal>
   <varray name="positions" >
    <v>       0.48852690       0.48454351       0.59968224 </v>
   </varray>
  </structure>
  <varray name="forces" >
   <v>       0.00031860       0.00012559      -0.00064889 </v>
  </varray>
  <varray name="stress" >
   <v>      -0.08307949      -0.00103225      -0.00127900 </v>
   <v>      -0.00103227      -0.08810219       0.00112406 </v>
   <v>      -0.00127897       0.00112406      -0.08702423 </v>
  </varray>
  <energy>
   <i name="e_fr_energy">     -0.08989791 </i>
   <i name="e_wo_entrp">     -0.05133234 </i>
   <i name="e_0_energy">     -0.07713113 </i>
  </energy>
  <time name="totalsc">   24.57   24.59</time>
 </calculation>
 <calculation>
  <scstep>
   <time name="dav">    0.16    0.16</time>
   <time name="total">    0.57    0.57</time>
   <energy>
    <i name="alphaZ">      0.07188501 </i>
    <i name="ewald">    -74.13461632 </i>
    <i name="hartreedc">   -303.20686810 </i>
    <i name="XCdc">     24.63559389 </i>
    <i name="pawpsdc">    296.06134526 </i>
    <i name="pawaedc">   -295.27318818 </i>
    <i name="eentropy">     -0.07712678 </i>
    <i name="bandstr">    -80.55210057 </i>
    <i name="atom">    432.35423390 </i>
    <i name="e_fr_energy">     -0.12084190 </i>
    <i name="e_wo_entrp">     -0.04371513 </i>
    <i name="e_0_energy">     -0.08227852 </i>
   </energy>
  </scstep>
  <scstep>
   <time name="diag">    0.04    0.04</time>
   <time name="diis">    0.14    0.14</time>
   <time name="orth">    0.00    0.00</time>
   <time name="total">    0.58    0.58</time>
   <energy>
    <i name="e_fr_energy">     -0.09195957 </i>
    <i name="e_wo_entrp">     -0.01505303 </i>
    <i name="e_0_energy">     -0.05350630 </i>
   </energy>
  </scstep>
  <scstep>
   <time name="diag">    0.04    0.04</time>
   <time name="diis">    0.16    0.16</time>
   <time name="orth">    0.00    0.00</time>
   <time name="total">    0.60    0.60</time>
   <energy>
    <i name="e_fr_energy">     -0.12799850 </i>
    <i name="e_wo_entrp">     -0.07915575 </i>
    <i name="e_0_energy">     -0.10357713 </i>
   </energy>
  </scstep>
  <scstep>
   <time name="diag">    0.04    0.04</time>
   <time name="diis">    0.15    0.15</time>
   <time name="orth">    0.00    0.00</time>
   <time name="total">    0.59    0.59</time>
   <energy>
    <i name="e_fr_energy">     -0.01829646 </i>
    <i name="e_wo_entrp">      0.01201634 </i>
    <i name="e_0_energy">     -0.00314006 </i>
   </energy>
  </scstep>
  <scstep>
   <time name="diag">    0.04    0.04</time>
   <time name="diis">    0.14    0.14</time>
   <time name="orth">    0.00    0.00</time>
   <time name="total">    0.59    0.59</time>
   <energy>
    <i name="e_fr_energy">      0.19525810 </i>
    <i name="e_wo_entrp">      0.23105009 </i>
    <i name="e_0_energy">      0.21315410 </i>
   </energy>
  </scstep>
  <scstep>
   <time name="diag">    0.04    0.04</time>
   <time name="diis">    0.14    0.14</time>
   <time name="orth">    0.00    0.00</time>
   <time name="total">    0.59    0.59</time>
   <energy>
    <i name="e_fr_energy">     -0.01673255 </i>
    <i name="e_wo_entrp">      0.02715580 </i>
    <i name="e_0_energy">      0.00521163 </i>
   </energy>
  </scstep>
  <scstep>
   <time name="diag">    0.04    0.04</time>
   <time name="diis">    0.14    0.14</time>
   <time name="orth">    0.00    0.00</time>
   <time name="total">    0.59    0.59</time>
   <energy>
    <i name="e_fr_energy">      0.06053019 </i>
    <i name="e_wo_entrp">      0.09898993 </i>
    <i name="e_0_energy">      0.07976006 </i>
   </energy>
  </scstep>
  <scstep>
   <time name="diag">    0.04    0.04</time>
   <time name="diis">    0.14    0.14</time>
   <time name="orth">    0.00    0.00</time>
   <time name="total">    0.59    0.59</time>
   <energy>
    <i name="e_fr_energy">      0.12544068 </i>
    <i name="e_wo_entrp">      0.16204647 </i>
    <i name="e_0_energy">      0.14374358 </i>
   </energy>
  </scstep>
  <scstep>
   <time name="diag">    0.04    0.04</time>
   <time name="diis">    0.14    0.14</time>
   <time name="orth">    0.00    0.00</time>
   <time name="total">    0.59    0.59</time>
   <energy>
    <i name="e_fr_energy">      0.15135610 </i>
    <i name="e_wo_entrp">      0.18512183 </i>
    <i name="e_0_energy">      0.16823897 </i>
   </energy>
  </scstep>
  <scstep>
   <time name="diag">    0.04    0.04</time>
   <time name="diis">    0.14    0.14</time>
   <time name="orth">    0.00    0.00</time>
   <time name="total">    0.59    0.59</time>
   <energy>
    <i name="e_fr_energy">      0.20775521 </i>
    <i name="e_wo_entrp">      0.27234458 </i>
    <i name="e_0_energy">      0.24004989 </i>
   </energy>
  </scstep>
  <scstep>
   <time name="diag">    0.04    0.04</time>
   <time name="diis">    0.14    0.14</time>
   <time name="orth">    0.00    0.00</time>
   <time name="total">    0.58    0.59</time>
   <energy>
    <i name="e_fr_energy">     -0.06939153 </i>
    <i name="e_wo_entrp">     -0.01678661 </i>
    <i name="e_0_energy">     -0.04308907 </i>
   </energy>
  </scstep>
  <scstep>
   <time name="diag">    0.04    0.04</time>
   <time name="diis">    0.14    0.14</time>
   <time name="orth">    0.00    0.00</time>
   <time name="total">    0.59    0.59</time>
   <energy>
    <i name="e_fr_energy">      0.04513787 </i>
    <i name="e_wo_entrp">      0.09933320 </i>
    <i name="e_0_energy">      0.07223554 </i>
   </energy>
  </scstep>
  <scstep>
   <time name="diag">    0.04    0.04</time>
   <time name="diis">    0.14    0.14</time>
   <time name="orth">    0.00    0.00</time>
   <time name="total">    0.59    0.59</time>
   <energy>
    <i name="e_fr_energy">      0.06740676 </i>
    <i name="e_wo_entrp">      0.13417015 </i>
    <i name="e_0_energy">      0.10078845 </i>
   </energy>
  </scstep>
  <scstep>
   <time name="diag">    0.04    0.04</time>
   <time name="diis">    0.14    0.14</time>
   <time name="orth">    0.00    0.00</time>
   <time name="total">    0.59    0.59</time>
   <energy>
    <i name="e_fr_energy">      0.02034418 </i>
    <i name="e_wo_entrp">      0.08735159 </i>
    <i name="e_0_energy">      0.05384788 </i>
   </energy>
  </scstep>
  <scstep>
   <time name="diag">    0.04    0.04</time>
   <time name="diis">    0.14    0.14</time>
   <time name="orth">    0.00    0.00</time>
   <time name="total">    0.59    0.59</time>
   <energy>
    <i name="e_fr_energy">      0.01258603 </i>
    <i name="e_wo_entrp">      0.08098122 </i>
    <i name="e_0_energy">      0.04678362 </i>
   </energy>
  </scstep>
  <scstep>
   <time name="diag">    0.04    0.04</time>
   <time name="diis">    0.14    0.14</time>
   <time name="orth">    0.00    0.00</time>
   <time name="total">    0.59    0.59</time>
   <energy>
    <i name="e_fr_energy">     -0.06099265 </i>
    <i name="e_wo_entrp">      0.00909845 </i>
    <i name="e_0_energy">     -0.02594710 </i>
   </energy>
  </scstep>
  <scstep>
   <time name="diag">    0.04    0.04</time>
   <time name="diis">    0.14    0.14</time>
   <time name="orth">    0.00    0.00</time>
   <time name="total">    0.59    0.59</time>
   <energy>
    <i name="e_fr_energy">     -0.05873556 </i>
    <i name="e_wo_entrp">      0.01523484 </i>
    <i name="e_0_energy">     -0.02175036 </i>
   </energy>
  </scstep>
  <scstep>
   <time name="diag">    0.04    0.04</time>
   <time name="diis">    0.14    0.14</time>
   <time name="orth">    0.00    0.00</time>
   <time name="total">    0.59    0.59</time>
   <energy>
    <i name="e_fr_energy">     -0.06340648 </i>
    <i name="e_wo_entrp">      0.01224163 </i>
    <i name="e_0_energy">     -0.02558243 </i>
   </energy>
  </scstep>
  <scstep>
   <time name="diag">    0.04    0.04</time>
   <time name="diis">    0.14    0.14</time>
   <time name="orth">    0.00    0.00</time>
   <time name="total">    0.58    0.58</time>
   <energy>
    <i name="e_fr_energy">     -0.07513022 </i>
    <i name="e_wo_entrp">      0.00164410 </i>
    <i name="e_0_energy">     -0.03674306 </i>
   </energy>
  </scstep>
  <scstep>
   <time name="diag">    0.04    0.04</time>
   <time name="diis">    0.14    0.14</time>
   <time name="orth">    0.00    0.00</time>
   <time name="total">    0.59    0.59</time>
   <energy>
    <i name="e_fr_energy">     -0.08695744 </i>
    <i name="e_wo_entrp">     -0.01012936 </i>
    <i name="e_0_energy">     -0.04854340 </i>
   </energy>
  </scstep>
  <scstep>
   <time name="diag">    0.04    0.04</time>
   <time name="diis">    0.14    0.14</time>
   <time name="orth">    0.00    0.00</time>
   <time name="total">    0.58    0.58</time>
   <energy>
    <i name="e_fr_energy">     -0.08741529 </i>
    <i name="e_wo_entrp">     -0.01032488 </i>
    <i name="e_0_energy">     -0.04887008 </i>
   </energy>
  </scstep>
  <scstep>
   <time name="diag">    0.04    0.04</time>
   <time name="diis">    0.14    0.14</time>
   <time name="orth">    0.00    0.00</time>
   <time name="total">    0.59    0.59</time>
   <energy>
    <i name="e_fr_energy">     -0.09044679 </i>
    <i name="e_wo_entrp">     -0.01333056 </i>
    <i name="e_0_energy">     -0.05188867 </i>
   </energy>
  </scstep>
  <scstep>
   <time name="diag">    0.04    0.04</time>
   <time name="diis">    0.14    0.14</time>
   <time name="orth">    0.00    0.00</time>
   <time name="total">    0.58    0.59</time>
   <energy>
    <i name="e_fr_energy">     -0.09032008 </i>
    <i name="e_wo_entrp">     -0.01319377 </i>
    <i name="e_0_energy">     -0.05175692 </i>
   </energy>
  </scstep>
  <scstep>
   <time name="diag">    0.04    0.04</time>
   <time name="diis">    0.15    0.15</time>
   <time name="orth">    0.00    0.00</time>
   <time name="total">    0.59    0.60</time>
   <energy>
    <i name="e_fr_energy">     -0.09080095 </i>
    <i name="e_wo_entrp">     -0.01367397 </i>
    <i name="e_0_energy">     -0.05223746 </i>
   </energy>
  </scstep>
  <scstep>
   <time name="diag">    0.04    0.04</time>
   <time name="diis">    0.14    0.14</time>
   <time name="orth">    0.00    0.00</time>
   <time name="total">    0.59    0.58</time>
   <energy>
    <i name="e_fr_energy">     -0.09089763 </i>
    <i name="e_wo_entrp">     -0.01376932 </i>
    <i name="e_0_energy">     -0.05233348 </i>
   </energy>
  </scstep>
  <scstep>
   <time name="diag">    0.04    0.04</time>
   <time name="diis">    0.13    0.13</time>
   <time name="orth">    0.00    0.00</time>
   <time name="total">    0.58    0.58</time>
   <energy>
    <i name="e_fr_energy">     -0.09081567 </i>
    <i name="e_wo_entrp">     -0.01368505 </i>
    <i name="e_0_energy">     -0.05225036 </i>
   </energy>
  </scstep>
  <scstep>
   <time name="diag">    0.04    0.04</time>
   <time name="diis">    0.14    0.14</time>
   <time name="orth">    0.00    0.00</time>
   <time name="total">    0.58    0.59</time>
   <energy>
    <i name="e_fr_energy">     -0.09099849 </i>
    <i name="e_wo_entrp">     -0.01386760 </i>
    <i name="e_0_energy">     -0.05243304 </i>
   </energy>
  </scstep>
  <scstep>
   <time name="diag">    0.04    0.04</time>
   <time name="diis">    0.13    0.13</time>
   <time name="orth">    0.00    0.00</time>
   <time name="total">    0.53    0.53</time>
   <energy>
    <i name="alphaZ">      0.07188501 </i>
    <i name="ewald">    -74.13461632 </i>
    <i name="hartreedc">   -300.05069663 </i>
    <i name="XCdc">     24.43563700 </i>
    <i name="pawpsdc">    295.92979243 </i>
    <i name="pawaedc">   -295.14026693 </i>
    <i name="eentropy">     -0.07713107 </i>
    <i name="bandstr">    -83.47983522 </i>
    <i name="atom">    432.35423390 </i>
    <i name="e_fr_energy">     -0.09099784 </i>
    <i name="e_wo_entrp">     -0.01386677 </i>
    <i name="e_0_energy">     -0.05243230 </i>
   </energy>
  </scstep>
  <structure>
   <crystal>
    <varray name="basis" >
     <v>       9.70390096      -0.00077417      -0.00047590 </v>
     <v>      -4.57704921       8.55778160       0.00083038 </v>
     <v>      -4.42108382       2.65002227      11.44713792 </v>
    </varray>
    <i name="volume">    950.54043104 </i>
    <varray name="rec_basis" >
     <v>       0.10305706       0.05511648       0.02704292 </v>
     <v>       0.00000800       0.11685961      -0.02705001 </v>
     <v>       0.00000428      -0.00000619       0.08736117 </v>
    </varray>
   </crystal>
   <varray name="positions" >
    <v>       0.48852658       0.48454504       0.59967693 </v>
   </varray>
  </structure>
  <varray name="forces" >
   <v>       0.00067700       0.00000816       0.00020639 </v>
  </varray>
  <varray name="stress" >
   <v>      -0.06687701      -0.00024350       0.00004400 </v>
   <v>      -0.00024349      -0.06918798      -0.00078442 </v>
   <v>       0.00004395      -0.00078440      -0.06738136 </v>
  </varray>
  <energy>
   <i name="e_fr_energy">     -0.09104360 </i>
   <i name="e_wo_entrp">     -0.05247806 </i>
   <i name="e_0_energy">     -0.07713107 </i>
  </energy>
  <time name="totalsc">   17.53   17.54</time>
 </calculation>
 <calculation>
  <scstep>
   <time name="dav">    0.16    0.16</time>
   <time name="total">    0.56    0.56</time>
   <energy>
    <i name="alphaZ">      0.07567464 </i>
    <i name="ewald">    -75.41601308 </i>
    <i name="hartreedc">   -305.23032119 </i>
    <i name="XCdc">     24.84244832 </i>
    <i name="pawpsdc">    295.92969276 </i>
    <i name="pawaedc">   -295.14021057 </i>
    <i name="eentropy">     -0.07711525 </i>
    <i name="bandstr">    -77.55575062 </i>
    <i name="atom">    432.35423390 </i>
    <i name="e_fr_energy">     -0.21736108 </i>
    <i name="e_wo_entrp">     -0.14024584 </i>
    <i name="e_0_energy">     -0.17880346 </i>
   </energy>
  </scstep>
  <scstep>
   <time name="diag">    0.04    0.04</time>
   <time name="diis">    0.14    0.14</time>
   <time name="orth">    0.00    0.00</time>
   <time name="total">    0.58    0.58</time>
   <energy>
    <i name="e_fr_energy">     -0.09558876 </i>
    <i name="e_wo_entrp">     -0.01930092 </i>
    <i name="e_0_energy">     -0.05744484 </i>
   </energy>
  </scstep>
  <scstep>
   <time name="diag">    0.04    0.04</time>
   <time name="diis">    0.16    0.16</time>
   <time name="orth">    0.00    0.00</time>
   <time name="total">    0.60    0.60</time>
   <energy>
    <i name="e_fr_energy">     -0.20791414 </i>
    <i name="e_wo_entrp">     -0.16971352 </i>
    <i name="e_0_energy">     -0.18881383 </i>
   </energy>
  </scstep>
  <scstep>
   <time name="diag">    0.04    0.04</time>
   <time name="diis">    0.14    0.14</time>
   <time name="orth">    0.00    0.00</time>
   <time name="total">    0.59    0.59</time>
   <energy>
    <i name="e_fr_energy">     -0.17935967 </i>
    <i name="e_wo_entrp">     -0.14358057 </i>
    <i name="e_0_energy">     -0.16147012 </i>
   </energy>
  </scstep>
  <scstep>
   <time name="diag">    0.04    0.04</time>
   <time name="diis">    0.14    0.14</time>
   <time name="orth">    0.00    0.00</time>
   <time name="total">    0.59    0.59</time>
   <energy>
    <i name="e_fr_energy">     -0.13007193 </i>
    <i name="e_wo_entrp">     -0.12182206 </i>
    <i name="e_0_energy">     -0.12594700 </i>
   </energy>
  </scstep>
  <scstep>
   <time name="diag">    0.04    0.04</time>
   <time name="diis">    0.14    0.14</time>
   <time name="orth">    0.00    0.00</time>
   <time name="total">    0.59    0.59</time>
   <energy>
    <i name="e_fr_energy">      0.09892890 </i>
    <i name="e_wo_entrp">      0.13069608 </i>
    <i name="e_0_energy">      0.11481249 </i>
   </energy>
  </scstep>
  <scstep>
   <time name="diag">    0.04    0.04</time>
   <time name="diis">    0.15    0.15</time>
   <time name="orth">    0.00    0.00</time>
   <time name="total">    0.59    0.59</time>
   <energy>
    <i name="e_fr_energy">      0.06067470 </i>
    <i name="e_wo_entrp">      0.09037561 </i>
    <i name="e_0_energy">      0.07552515 </i>
   </energy>
  </scstep>
  <scstep>
   <time name="diag">    0.04    0.04</time>
   <time name="diis">    0.14    0.14</time>
   <time name="orth">    0.00    0.00</time>
   <time name="total">    0.59    0.59</time>
   <energy>
    <i name="e_fr_energy">     -0.07012410 </i>
    <i name="e_wo_entrp">     -0.04020883 </i>
    <i name="e_0_energy">     -0.05516647 </i>
   </energy>
  </scstep>
  <scstep>
   <time name="diag">    0.04    0.04</time>
   <time name="diis">    0.15    0.15</time>
   <time name="orth">    0.00    0.00</time>
   <time name="total">    0.59    0.59</time>
   <energy>
    <i name="e_fr_energy">     -0.09847298 </i>
    <i name="e_wo_entrp">     -0.07886713 </i>
    <i name="e_0_energy">     -0.08867005 </i>
   </energy>
  </scstep>
  <scstep>
   <time name="diag">    0.04    0.04</time>
   <time name="diis">    0.14    0.14</time>
   <time name="orth">    0.00    0.00</time>
   <time name="total">    0.59    0.59</time>
   <energy>
    <i name="e_fr_energy">      0.07455952 </i>
    <i name="e_wo_entrp">      0.09112491 </i>
    <i name="e_0_energy">      0.08284221 </i>
   </energy>
  </scstep>
  <scstep>
   <time name="diag">    0.04    0.04</time>
   <time name="diis">    0.14    0.14</time>
   <time name="orth">    0.00    0.00</time>
   <time name="total">    0.59    0.59</time>
   <energy>
    <i name="e_fr_energy">     -0.01707417 </i>
    <i name="e_wo_entrp">     -0.00028954 </i>
    <i name="e_0_energy">     -0.00868185 </i>
   </energy>
  </scstep>
  <scstep>
   <time name="diag">    0.04    0.04</time>
   <time name="diis">    0.14    0.14</time>
   <time name="orth">    0.00    0.00</time>
   <time name="total">    0.60    0.60</time>
   <energy>
    <i name="e_fr_energy">      0.02910105 </i>
    <i name="e_wo_entrp">      0.04826547 </i>
    <i name="e_0_energy">      0.03868326 </i>
   </energy>
  </scstep>
  <scstep>
   <time name="diag">    0.04    0.04</time>
   <time name="diis">    0.14    0.14</time>
   <time name="orth">    0.00    0.00</time>
   <time name="total">    0.59    0.59</time>
   <energy>
    <i name="e_fr_energy">      0.03960791 </i>
    <i name="e_wo_entrp">      0.05871039 </i>
    <i name="e_0_energy">      0.04915915 </i>
   </energy>
  </scstep>
  <scstep>
   <time name="diag">    0.04    0.04</time>
   <time name="diis">    0.14    0.14</time>
   <time name="orth">    0.00    0.00</time>
   <time name="total">    0.59    0.59</time>
   <energy>
    <i name="e_fr_energy">      0.03980180 </i>
    <i name="e_wo_entrp">      0.05817453 </i>
    <i name="e_0_energy">      0.04898817 </i>
   </energy>
  </scstep>
  <scstep>
   <time name="diag">    0.04    0.04</time>
   <time name="diis">    0.14    0.14</time>
   <time name="orth">    0.00    0.00</time>
   <time name="total">    0.58    0.59</time>
   <energy>
    <i name="e_fr_energy">      0.26766098 </i>
    <i name="e_wo_entrp">      0.29990068 </i>
    <i name="e_0_energy">      0.28378083 </i>
   </energy>
  </scstep>
  <scstep>
   <time name="diag">    0.04    0.04</time>
   <time name="diis">    0.14    0.14</time>
   <time name="orth">    0.00    0.00</time>
   <time name="total">    0.59    0.59</time>
   <energy>
    <i name="e_fr_energy">     -0.02272556 </i>
    <i name="e_wo_entrp">      0.00388806 </i>
    <i name="e_0_energy">     -0.00941875 </i>
   </energy>
  </scstep>
  <scstep>
   <time name="diag">    0.04    0.04</time>
   <time name="diis">    0.14    0.14</time>
   <time name="orth">    0.00    0.00</time>
   <time name="total">    0.59    0.59</time>
   <energy>
    <i name="e_fr_energy">     -0.06800002 </i>
    <i name="e_wo_entrp">     -0.03954820 </i>
    <i name="e_0_energy">     -0.05377411 </i>
   </energy>
  </scstep>
  <scstep>
   <time name="diag">    0.04    0.04</time>
   <time name="diis">    0.14    0.14</time>
   <time name="orth">    0.00    0.00</time>
   <time name="total">    0.59    0.59</time>
   <energy>
    <i name="e_fr_energy">     -0.20640633 </i>
    <i name="e_wo_entrp">     -0.18876338 </i>
    <i name="e_0_energy">     -0.19758485 </i>
   </energy>
  </scstep>
  <scstep>
   <time name="diag">    0.04    0.04</time>
   <time name="diis">    0.14    0.14</time>
   <time name="orth">    0.00    0.00</time>
   <time name="total">    0.59    0.59</time>
   <energy>
    <i name="e_fr_energy">     -0.23141675 </i>
    <i name="e_wo_entrp">     -0.20335517 </i>
    <i name="e_0_energy">     -0.21738596 </i>
   </energy>
  </scstep>
  <scstep>
   <time name="diag">    0.04    0.04</time>
   <time name="diis">    0.15    0.15</time>
   <time name="orth">    0.00    0.00</time>
   <time name="total">    0.59    0.59</time>
   <energy>
    <i name="e_fr_energy">     -0.16368381 </i>
    <i name="e_wo_entrp">     -0.16076312 </i>
    <i name="e_0_energy">     -0.16222347 </i>
   </energy>
  </scstep>
  <scstep>
   <time name="diag">    0.04    0.04</time>
   <time name="diis">    0.14    0.14</time>
   <time name="orth">    0.00    0.00</time>
   <time name="total">    0.59    0.59</time>
   <energy>
    <i name="e_fr_energy">     -0.12761736 </i>
    <i name="e_wo_entrp">     -0.12299023 </i>
    <i name="e_0_energy">     -0.12530380 </i>
   </energy>
  </scstep>
  <scstep>
   <time name="diag">    0.04    0.04</time>
   <time name="diis">    0.14    0.14</time>
   <time name="orth">    0.00    0.00</time>
   <time name="total">    0.59    0.59</time>
   <energy>
    <i name="e_fr_energy">     -0.18270776 </i>
    <i name="e_wo_entrp">     -0.17984338 </i>
    <i name="e_0_energy">     -0.18127557 </i>
   </energy>
  </scstep>
  <scstep>
   <time name="diag">    0.04    0.04</time>
   <time name="diis">    0.14    0.14</time>
   <time name="orth">    0.00    0.00</time>
   <time name="total">    0.59    0.59</time>
   <energy>
    <i name="e_fr_energy">     -0.14239592 </i>
    <i name="e_wo_entrp">     -0.13890777 </i>
    <i name="e_0_energy">     -0.14065185 </i>
   </energy>
  </scstep>
  <scstep>
   <time name="diag">    0.04    0.04</time>
   <time name="diis">    0.14    0.14</time>
   <time name="orth">    0.00    0.00</time>
   <time name="total">    0.59    0.59</time>
   <energy>
    <i name="e_fr_energy">     -0.16638439 </i>
    <i name="e_wo_entrp">     -0.16149303 </i>
    <i name="e_0_energy">     -0.16393871 </i>
   </energy>
  </scstep>
  <scstep>
   <time name="diag">    0.04    0.04</time>
   <time name="diis">    0.14    0.14</time>
   <time name="orth">    0.00    0.00</time>
   <time name="total">    0.59    0.60</time>
   <energy>
    <i name="e_fr_energy">     -0.24629373 </i>
    <i name="e_wo_entrp">     -0.24519575 </i>
    <i name="e_0_energy">     -0.24574474 </i>
   </energy>
  </scstep>
  <scstep>
   <time name="diag">    0.04    0.04</time>
   <time name="diis">    0.14    0.14</time>
   <time name="orth">    0.00    0.00</time>
   <time name="total">    0.59    0.59</time>
   <energy>
    <i name="e_fr_energy">     -0.32492374 </i>
    <i name="e_wo_entrp">     -0.31411689 </i>
    <i name="e_0_energy">     -0.31952032 </i>
   </energy>
  </scstep>
  <scstep>
   <time name="diag">    0.04    0.04</time>
   <time name="diis">    0.14    0.14</time>
   <time name="orth">    0.00    0.00</time>
   <time name="total">    0.60    0.59</time>
   <energy>
    <i name="e_fr_energy">     -0.19035537 </i>
    <i name="e_wo_entrp">     -0.15703637 </i>
    <i name="e_0_energy">     -0.17369587 </i>
   </energy>
  </scstep>
  <scstep>
   <time name="diag">    0.04    0.04</time>
   <time name="diis">    0.14    0.14</time>
   <time name="orth">    0.00    0.00</time>
   <time name="total">    0.59    0.59</time>
   <energy>
    <i name="e_fr_energy">     -0.44669364 </i>
    <i name="e_wo_entrp">     -0.43246360 </i>
    <i name="e_0_energy">     -0.43957862 </i>
   </energy>
  </scstep>
  <scstep>
   <time name="diag">    0.04    0.04</time>
   <time name="diis">    0.14    0.14</time>
   <time name="orth">    0.00    0.00</time>
   <time name="total">    0.60    0.60</time>
   <energy>
    <i name="e_fr_energy">     -0.36239670 </i>
    <i name="e_wo_entrp">     -0.32392576 </i>
    <i name="e_0_energy">     -0.34316123 </i>
   </energy>
  </scstep>
  <scstep>
   <time name="diag">    0.04    0.04</time>
   <time name="diis">    0.14    0.14</time>
   <time name="orth">    0.00    0.00</time>
   <time name="total">    0.59    0.59</time>
   <energy>
    <i name="e_fr_energy">     -0.36380416 </i>
    <i name="e_wo_entrp">     -0.32514395 </i>
    <i name="e_0_energy">     -0.34447405 </i>
   </energy>
  </scstep>
  <scstep>
   <time name="diag">    0.04    0.04</time>
   <time name="diis">    0.14    0.14</time>
   <time name="orth">    0.00    0.00</time>
   <time name="total">    0.60    0.60</time>
   <energy>
    <i name="e_fr_energy">     -0.30538038 </i>
    <i name="e_wo_entrp">     -0.25212238 </i>
    <i name="e_0_energy">     -0.27875138 </i>
   </energy>
  </scstep>
  <scstep>
   <time name="diag">    0.04    0.04</time>
   <time name="diis">    0.14    0.14</time>
   <time name="orth">    0.00    0.00</time>
   <time name="total">    0.60    0.60</time>
   <energy>
    <i name="e_fr_energy">     -0.43426208 </i>
    <i name="e_wo_entrp">     -0.39070783 </i>
    <i name="e_0_energy">     -0.41248495 </i>
   </energy>
  </scstep>
  <scstep>
   <time name="diag">    0.04    0.04</time>
   <time name="diis">    0.14    0.14</time>
   <time name="orth">    0.00    0.00</time>
   <time name="total">    0.59    0.60</time>
   <energy>
    <i name="e_fr_energy">     -0.33021727 </i>
    <i name="e_wo_entrp">     -0.28073637 </i>
    <i name="e_0_energy">     -0.30547682 </i>
   </energy>
  </scstep>
  <scstep>
   <time name="diag">    0.04    0.04</time>
   <time name="diis">    0.14    0.14</time>
   <time name="orth">    0.00    0.00</time>
   <time name="total">    0.60    0.60</time>
   <energy>
    <i name="e_fr_energy">     -0.32497713 </i>
    <i name="e_wo_entrp">     -0.27475542 </i>
    <i name="e_0_energy">     -0.29986628 </i>
   </energy>
  </scstep>
  <scstep>
   <time name="diag">    0.04    0.04</time>
   <time name="diis">    0.14    0.14</time>
   <time name="orth">    0.00    0.00</time>
   <time name="total">    0.60    0.60</time>
   <energy>
    <i name="e_fr_energy">     -0.32370822 </i>
    <i name="e_wo_entrp">     -0.27562499 </i>
    <i name="e_0_energy">     -0.29966660 </i>
   </energy>
  </scstep>
  <scstep>
   <time name="diag">    0.04    0.04</time>
   <time name="diis">    0.14    0.14</time>
   <time name="orth">    0.00    0.00</time>
   <time name="total">    0.60    0.60</time>
   <energy>
    <i name="e_fr_energy">     -0.32379318 </i>
    <i name="e_wo_entrp">     -0.27686739 </i>
    <i name="e_0_energy">     -0.30033029 </i>
   </energy>
  </scstep>
  <scstep>
   <time name="diag">    0.04    0.04</time>
   <time name="diis">    0.14    0.14</time>
   <time name="orth">    0.00    0.00</time>
   <time name="total">    0.60    0.60</time>
   <energy>
    <i name="e_fr_energy">     -0.25946197 </i>
    <i name="e_wo_entrp">     -0.20510827 </i>
    <i name="e_0_energy">     -0.23228512 </i>
   </energy>
  </scstep>
  <scstep>
   <time name="diag">    0.04    0.04</time>
   <time name="diis">    0.14    0.14</time>
   <time name="orth">    0.00    0.00</time>
   <time name="total">    0.60    0.60</time>
   <energy>
    <i name="e_fr_energy">     -0.14032994 </i>
    <i name="e_wo_entrp">     -0.08555285 </i>
    <i name="e_0_energy">     -0.11294140 </i>
   </energy>
  </scstep>
  <scstep>
   <time name="diag">    0.04    0.04</time>
   <time name="diis">    0.14    0.14</time>
   <time name="orth">    0.00    0.00</time>
   <time name="total">    0.60    0.60</time>
   <energy>
    <i name="e_fr_energy">     -0.09655991 </i>
    <i name="e_wo_entrp">     -0.03503768 </i>
    <i name="e_0_energy">     -0.06579879 </i>
   </energy>
  </scstep>
  <scstep>
   <time name="diag">    0.04    0.04</time>
   <time name="diis">    0.14    0.14</time>
   <time name="orth">    0.00    0.00</time>
   <time name="total">    0.60    0.60</time>
   <energy>
    <i name="e_fr_energy">     -0.15270892 </i>
    <i name="e_wo_entrp">     -0.09261992 </i>
    <i name="e_0_energy">     -0.12266442 </i>
   </energy>
  </scstep>
  <scstep>
   <time name="diag">    0.04    0.04</time>
   <time name="diis">    0.14    0.14</time>
   <time name="orth">    0.00    0.00</time>
   <time name="total">    0.60    0.60</time>
   <energy>
    <i name="e_fr_energy">     -0.11363713 </i>
    <i name="e_wo_entrp">     -0.06145941 </i>
    <i name="e_0_energy">     -0.08754827 </i>
   </energy>
  </scstep>
  <scstep>
   <time name="diag">    0.04    0.04</time>
   <time name="diis">    0.14    0.14</time>
   <time name="orth">    0.00    0.00</time>
   <time name="total">    0.60    0.60</time>
   <energy>
    <i name="e_fr_energy">     -0.08321009 </i>
    <i name="e_wo_entrp">     -0.03527779 </i>
    <i name="e_0_energy">     -0.05924394 </i>
   </energy>
  </scstep>
  <scstep>
   <time name="diag">    0.04    0.04</time>
   <time name="diis">    0.15    0.15</time>
   <time name="orth">    0.00    0.00</time>
   <time name="total">    0.61    0.61</time>
   <energy>
    <i name="e_fr_energy">     -0.06667554 </i>
    <i name="e_wo_entrp">     -0.01866863 </i>
    <i name="e_0_energy">     -0.04267208 </i>
   </energy>
  </scstep>
  <scstep>
   <time name="diag">    0.04    0.04</time>
   <time name="diis">    0.14    0.14</time>
   <time name="orth">    0.00    0.00</time>
   <time name="total">    0.60    0.60</time>
   <energy>
    <i name="e_fr_energy">     -0.06264868 </i>
    <i name="e_wo_entrp">     -0.01296808 </i>
    <i name="e_0_energy">     -0.03780838 </i>
   </energy>
  </scstep>
  <scstep>
   <time name="diag">    0.04    0.04</time>
   <time name="diis">    0.14    0.14</time>
   <time name="orth">    0.00    0.00</time>
   <time name="total">    0.60    0.60</time>
   <energy>
    <i name="e_fr_energy">     -0.05222395 </i>
    <i name="e_wo_entrp">     -0.00244074 </i>
    <i name="e_0_energy">     -0.02733234 </i>
   </energy>
  </scstep>
  <scstep>
   <time name="diag">    0.04    0.04</time>
   <time name="diis">    0.14    0.14</time>
   <time name="orth">    0.00    0.00</time>
   <time name="total">    0.60    0.60</time>
   <energy>
    <i name="e_fr_energy">     -0.03485681 </i>
    <i name="e_wo_entrp">      0.01407167 </i>
    <i name="e_0_energy">     -0.01039257 </i>
   </energy>
  </scstep>
  <scstep>
   <time name="diag">    0.04    0.04</time>
   <time name="diis">    0.15    0.15</time>
   <time name="orth">    0.00    0.00</time>
   <time name="total">    0.60    0.61</time>
   <energy>
    <i name="e_fr_energy">     -0.02289452 </i>
    <i name="e_wo_entrp">      0.02610403 </i>
    <i name="e_0_energy">      0.00160475 </i>
   </energy>
  </scstep>
  <scstep>
   <time name="diag">    0.04    0.04</time>
   <time name="diis">    0.14    0.14</time>
   <time name="orth">    0.00    0.00</time>
   <time name="total">    0.60    0.60</time>
   <energy>
    <i name="e_fr_energy">     -0.01707061 </i>
    <i name="e_wo_entrp">      0.04123698 </i>
    <i name="e_0_energy">      0.01208319 </i>
   </energy>
  </scstep>
  <scstep>
   <time name="diag">    0.04    0.04</time>
   <time name="diis">    0.14    0.14</time>
   <time name="orth">    0.00    0.00</time>
   <time name="total">    0.60    0.60</time>
   <energy>
    <i name="e_fr_energy">     -0.04030981 </i>
    <i name="e_wo_entrp">      0.02188416 </i>
    <i name="e_0_energy">     -0.00921282 </i>
   </energy>
  </scstep>
  <scstep>
   <time name="diag">    0.04    0.04</time>
   <time name="diis">    0.14    0.14</time>
   <time name="orth">    0.00    0.00</time>
   <time name="total">    0.60    0.60</time>
   <energy>
    <i name="e_fr_energy">     -0.12172907 </i>
    <i name="e_wo_entrp">     -0.08023603 </i>
    <i name="e_0_energy">     -0.10098255 </i>
   </energy>
  </scstep>
  <scstep>
   <time name="diag">    0.04    0.04</time>
   <time name="diis">    0.14    0.15</time>
   <time name="orth">    0.00    0.00</time>
   <time name="total">    0.60    0.60</time>
   <energy>
    <i name="e_fr_energy">      0.12518161 </i>
    <i name="e_wo_entrp">      0.18528818 </i>
    <i name="e_0_energy">      0.15523489 </i>
   </energy>
  </scstep>
  <scstep>
   <time name="diag">    0.04    0.04</time>
   <time name="diis">    0.14    0.14</time>
   <time name="orth">    0.00    0.00</time>
   <time name="total">    0.60    0.60</time>
   <energy>
    <i name="e_fr_energy">     -0.04615982 </i>
    <i name="e_wo_entrp">      0.01565325 </i>
    <i name="e_0_energy">     -0.01525329 </i>
   </energy>
  </scstep>
  <scstep>
   <time name="diag">    0.04    0.04</time>
   <time name="diis">    0.14    0.14</time>
   <time name="orth">    0.00    0.00</time>
[...]
       <r>    -4.2284     0.0000     4.0000 </r>
       <r>    -4.1231     0.0000     4.0000 </r>
       <r>    -4.0179     0.0000     4.0000 </r>
       <r>    -3.9126     0.0000     4.0000 </r>
       <r>    -3.8074     0.0000     4.0000 </r>
       <r>    -3.7022     0.0000     4.0000 </r>
       <r>    -3.5969     0.0000     4.0000 </r>
       <r>    -3.4917     0.0000     4.0000 </r>
       <r>    -3.3864     0.0000     4.0000 </r>
       <r>    -3.2812     0.0000     4.0000 </r>
       <r>    -3.1759     0.0000     4.0000 </r>
       <r>    -3.0707     0.0000     4.0000 </r>
       <r>    -2.9655     0.0000     4.0000 </r>
       <r>    -2.8602     0.0000     4.0000 </r>
       <r>    -2.7550     0.0000     4.0000 </r>
       <r>    -2.6497     0.0000     4.0000 </r>
       <r>    -2.5445     0.0000     4.0000 </r>
       <r>    -2.4392     0.0000     4.0000 </r>
       <r>    -2.3340     0.0000     4.0000 </r>
       <r>    -2.2288     0.0000     4.0000 </r>
       <r>    -2.1235     0.0000     4.0000 </r>
       <r>    -2.0183     0.0000     4.0000 </r>
       <r>    -1.9130     0.0000     4.0000 </r>
       <r>    -1.8078     0.0000     4.0000 </r>
       <r>    -1.7025     0.0000     4.0000 </r>
       <r>    -1.5973     0.0000     4.0000 </r>
       <r>    -1.4921     0.0000     4.0000 </r>
       <r>    -1.3868     0.0000     4.0000 </r>
       <r>    -1.2816     0.0000     4.0000 </r>
       <r>    -1.1763     0.0000     4.0000 </r>
       <r>    -1.0711     0.0000     4.0000 </r>
       <r>    -0.9659     0.0000     4.0000 </r>
       <r>    -0.8606     0.0000     4.0000 </r>
       <r>    -0.7554     0.0000     4.0000 </r>
       <r>    -0.6501     0.0000     4.0000 </r>
       <r>    -0.5449     0.0000     4.0000 </r>
       <r>    -0.4396     0.0180     4.0019 </r>
       <r>    -0.3344     5.0415     4.5325 </r>
       <r>    -0.2292     4.4318     4.9989 </r>
       <r>    -0.1239     0.0106     5.0000 </r>
       <r>    -0.0187     0.0000     5.0000 </r>
       <r>     0.0866     0.0000     5.0000 </r>
       <r>     0.1918     0.0000     5.0000 </r>
       <r>     0.2971     0.0000     5.0000 </r>
       <r>     0.4023     0.0000     5.0000 </r>
       <r>     0.5075     0.0000     5.0000 </r>
       <r>     0.6128     0.0000     5.0000 </r>
       <r>     0.7180     0.0000     5.0000 </r>
       <r>     0.8233     0.0000     5.0000 </r>
       <r>     0.9285     0.0000     5.0000 </r>
       <r>     1.0338     0.0000     5.0000 </r>
       <r>     1.1390     0.0000     5.0000 </r>
       <r>     1.2442     0.0000     5.0000 </r>
       <r>     1.3495     0.0000     5.0000 </r>
       <r>     1.4547     0.0000     5.0000 </r>
       <r>     1.5600     0.0001     5.0000 </r>
       <r>     1.6652     1.0718     5.1128 </r>
       <r>     1.7705    12.5943     6.4383 </r>
       <r>     1.8757     5.3209     6.9983 </r>
       <r>     1.9809     0.0166     7.0000 </r>
       <r>     2.0862     0.0000     7.0000 </r>
       <r>     2.1914     0.0000     7.0000 </r>
       <r>     2.2967     0.0000     7.0000 </r>
       <r>     2.4019     0.0000     7.0000 </r>
       <r>     2.5071     0.0000     7.0000 </r>
       <r>     2.6124     0.0000     7.0000 </r>
       <r>     2.7176     0.0000     7.0000 </r>
       <r>     2.8229     0.0000     7.0000 </r>
       <r>     2.9281     0.0000     7.0000 </r>
       <r>     3.0334     0.0000     7.0000 </r>
       <r>     3.1386     0.0111     7.0012 </r>
       <r>     3.2438     4.5712     7.4822 </r>
       <r>     3.3491    12.8763     8.8374 </r>
       <r>     3.4543    18.4993    10.7843 </r>
       <r>     3.5596     2.0496    11.0000 </r>
       <r>     3.6648     1.3259    11.1395 </r>
       <r>     3.7701     7.8996    11.9709 </r>
       <r>     3.8753     0.2765    12.0000 </r>
       <r>     3.9805     0.0000    12.0000 </r>
       <r>     4.0858     0.0000    12.0000 </r>
       <r>     4.1910     0.0000    12.0000 </r>
       <r>     4.2963     0.0000    12.0000 </r>
       <r>     4.4015     0.0000    12.0000 </r>
       <r>     4.5068     0.0000    12.0000 </r>
       <r>     4.6120     0.0000    12.0000 </r>
       <r>     4.7172     0.0000    12.0000 </r>
       <r>     4.8225     0.0000    12.0000 </r>
       <r>     4.9277     0.0000    12.0000 </r>
       <r>     5.0330     0.0000    12.0000 </r>
       <r>     5.1382     0.0000    12.0000 </r>
      </set>
      <set comment="spin 2">
       <r>   -26.4345     0.0000     0.0000 </r>
       <r>   -26.3293     0.0000     0.0000 </r>
       <r>   -26.2240     0.0000     0.0000 </r>
       <r>   -26.1188     0.0000     0.0000 </r>
       <r>   -26.0135     0.0000     0.0000 </r>
       <r>   -25.9083     0.0000     0.0000 </r>
       <r>   -25.8031     0.0000     0.0000 </r>
       <r>   -25.6978     0.0000     0.0000 </r>
       <r>   -25.5926     0.0000     0.0000 </r>
       <r>   -25.4873     0.0000     0.0000 </r>
       <r>   -25.3821     0.0000     0.0000 </r>
       <r>   -25.2768     0.0000     0.0000 </r>
       <r>   -25.1716     0.0000     0.0000 </r>
       <r>   -25.0664     0.2765     0.0291 </r>
       <r>   -24.9611     7.8996     0.8605 </r>
       <r>   -24.8559     1.3256     1.0000 </r>
       <r>   -24.7506     0.0002     1.0000 </r>
       <r>   -24.6454     0.0000     1.0000 </r>
       <r>   -24.5401     0.0000     1.0000 </r>
       <r>   -24.4349     0.0000     1.0000 </r>
       <r>   -24.3297     0.0000     1.0000 </r>
       <r>   -24.2244     0.0000     1.0000 </r>
       <r>   -24.1192     0.0000     1.0000 </r>
       <r>   -24.0139     0.0000     1.0000 </r>
       <r>   -23.9087     0.0000     1.0000 </r>
       <r>   -23.8035     0.0000     1.0000 </r>
       <r>   -23.6982     0.0000     1.0000 </r>
       <r>   -23.5930     0.0000     1.0000 </r>
       <r>   -23.4877     0.0000     1.0000 </r>
       <r>   -23.3825     0.0000     1.0000 </r>
       <r>   -23.2772     0.0000     1.0000 </r>
       <r>   -23.1720     0.0000     1.0000 </r>
       <r>   -23.0668     0.0000     1.0000 </r>
       <r>   -22.9615     0.0000     1.0000 </r>
       <r>   -22.8563     0.0000     1.0000 </r>
       <r>   -22.7510     0.0000     1.0000 </r>
       <r>   -22.6458     0.0000     1.0000 </r>
       <r>   -22.5405     0.0000     1.0000 </r>
       <r>   -22.4353     0.0000     1.0000 </r>
       <r>   -22.3301     0.0000     1.0000 </r>
       <r>   -22.2248     0.0000     1.0000 </r>
       <r>   -22.1196     0.0000     1.0000 </r>
       <r>   -22.0143     0.0000     1.0000 </r>
       <r>   -21.9091     0.0000     1.0000 </r>
       <r>   -21.8038     0.0000     1.0000 </r>
       <r>   -21.6986     0.0000     1.0000 </r>
       <r>   -21.5934     0.0000     1.0000 </r>
       <r>   -21.4881     0.0000     1.0000 </r>
       <r>   -21.3829     0.0000     1.0000 </r>
       <r>   -21.2776     0.0000     1.0000 </r>
       <r>   -21.1724     0.0000     1.0000 </r>
       <r>   -21.0671     0.0000     1.0000 </r>
       <r>   -20.9619     0.0000     1.0000 </r>
       <r>   -20.8567     0.0000     1.0000 </r>
       <r>   -20.7514     0.0000     1.0000 </r>
       <r>   -20.6462     0.0000     1.0000 </r>
       <r>   -20.5409     0.0000     1.0000 </r>
       <r>   -20.4357     0.0000     1.0000 </r>
       <r>   -20.3305     0.0000     1.0000 </r>
       <r>   -20.2252     0.0000     1.0000 </r>
       <r>   -20.1200     0.0000     1.0000 </r>
       <r>   -20.0147     0.0000     1.0000 </r>
       <r>   -19.9095     0.0000     1.0000 </r>
       <r>   -19.8042     0.0000     1.0000 </r>
       <r>   -19.6990     0.0000     1.0000 </r>
       <r>   -19.5938     0.0000     1.0000 </r>
       <r>   -19.4885     0.0000     1.0000 </r>
       <r>   -19.3833     0.0000     1.0000 </r>
       <r>   -19.2780     0.0000     1.0000 </r>
       <r>   -19.1728     0.0000     1.0000 </r>
       <r>   -19.0675     0.0000     1.0000 </r>
       <r>   -18.9623     0.0000     1.0000 </r>
       <r>   -18.8571     0.0000     1.0000 </r>
       <r>   -18.7518     0.0000     1.0000 </r>
       <r>   -18.6466     0.0000     1.0000 </r>
       <r>   -18.5413     0.0000     1.0000 </r>
       <r>   -18.4361     0.0000     1.0000 </r>
       <r>   -18.3308     0.0000     1.0000 </r>
       <r>   -18.2256     0.0000     1.0000 </r>
       <r>   -18.1204     0.0000     1.0000 </r>
       <r>   -18.0151     0.0000     1.0000 </r>
       <r>   -17.9099     0.0000     1.0000 </r>
       <r>   -17.8046     0.0000     1.0000 </r>
       <r>   -17.6994     0.0000     1.0000 </r>
       <r>   -17.5941     0.0000     1.0000 </r>
       <r>   -17.4889     0.0000     1.0000 </r>
       <r>   -17.3837     0.0000     1.0000 </r>
       <r>   -17.2784     0.0000     1.0000 </r>
       <r>   -17.1732     0.0000     1.0000 </r>
       <r>   -17.0679     0.0000     1.0000 </r>
       <r>   -16.9627     0.0000     1.0000 </r>
       <r>   -16.8575     0.0000     1.0000 </r>
       <r>   -16.7522     0.0000     1.0000 </r>
       <r>   -16.6470     0.0000     1.0000 </r>
       <r>   -16.5417     0.0000     1.0000 </r>
       <r>   -16.4365     0.0000     1.0000 </r>
       <r>   -16.3312     0.0000     1.0000 </r>
       <r>   -16.2260     0.0000     1.0000 </r>
       <r>   -16.1208     0.0000     1.0000 </r>
       <r>   -16.0155     0.0000     1.0000 </r>
       <r>   -15.9103     0.0000     1.0000 </r>
       <r>   -15.8050     0.0000     1.0000 </r>
       <r>   -15.6998     0.0000     1.0000 </r>
       <r>   -15.5945     0.0000     1.0000 </r>
       <r>   -15.4893     0.0000     1.0000 </r>
       <r>   -15.3841     0.0000     1.0000 </r>
       <r>   -15.2788     0.0000     1.0000 </r>
       <r>   -15.1736     0.0000     1.0000 </r>
       <r>   -15.0683     0.0000     1.0000 </r>
       <r>   -14.9631     0.0000     1.0000 </r>
       <r>   -14.8578     0.0000     1.0000 </r>
       <r>   -14.7526     0.0000     1.0000 </r>
       <r>   -14.6474     0.0000     1.0000 </r>
       <r>   -14.5421     0.0000     1.0000 </r>
       <r>   -14.4369     0.0000     1.0000 </r>
       <r>   -14.3316     0.0000     1.0000 </r>
       <r>   -14.2264     0.0000     1.0000 </r>
       <r>   -14.1212     0.0000     1.0000 </r>
       <r>   -14.0159     0.0000     1.0000 </r>
       <r>   -13.9107     0.0000     1.0000 </r>
       <r>   -13.8054     0.0000     1.0000 </r>
       <r>   -13.7002     0.0000     1.0000 </r>
       <r>   -13.5949     0.0000     1.0000 </r>
       <r>   -13.4897     0.0000     1.0000 </r>
       <r>   -13.3845     0.0000     1.0000 </r>
       <r>   -13.2792     0.0000     1.0000 </r>
       <r>   -13.1740     0.0000     1.0000 </r>
       <r>   -13.0687     0.0000     1.0000 </r>
       <r>   -12.9635     0.0000     1.0000 </r>
       <r>   -12.8582     0.0000     1.0000 </r>
       <r>   -12.7530     0.0000     1.0000 </r>
       <r>   -12.6478     0.0000     1.0000 </r>
       <r>   -12.5425     0.0000     1.0000 </r>
       <r>   -12.4373     0.0000     1.0000 </r>
       <r>   -12.3320     0.0000     1.0000 </r>
       <r>   -12.2268     0.0000     1.0000 </r>
       <r>   -12.1215     0.0000     1.0000 </r>
       <r>   -12.0163     0.0000     1.0000 </r>
       <r>   -11.9111     0.0000     1.0000 </r>
       <r>   -11.8058     0.0000     1.0000 </r>
       <r>   -11.7006     0.0000     1.0000 </r>
       <r>   -11.5953     0.0000     1.0000 </r>
       <r>   -11.4901     0.0000     1.0000 </r>
       <r>   -11.3848     0.0000     1.0000 </r>
       <r>   -11.2796     0.0000     1.0000 </r>
       <r>   -11.1744     0.0000     1.0000 </r>
       <r>   -11.0691     0.0000     1.0000 </r>
       <r>   -10.9639     0.0000     1.0000 </r>
       <r>   -10.8586     0.0000     1.0000 </r>
       <r>   -10.7534     0.6576     1.0692 </r>
       <r>   -10.6482    16.0056     2.7537 </r>
       <r>   -10.5429     2.3403     3.0000 </r>
       <r>   -10.4377     0.0003     3.0000 </r>
       <r>   -10.3324     0.0000     3.0000 </r>
       <r>   -10.2272     0.0000     3.0000 </r>
       <r>   -10.1219     0.0000     3.0000 </r>
       <r>   -10.0167     0.0000     3.0000 </r>
       <r>    -9.9115     0.0000     3.0000 </r>
       <r>    -9.8062     0.0000     3.0000 </r>
       <r>    -9.7010     0.0000     3.0000 </r>
       <r>    -9.5957     0.0000     3.0000 </r>
       <r>    -9.4905     0.0000     3.0000 </r>
       <r>    -9.3852     0.0000     3.0000 </r>
       <r>    -9.2800     0.0000     3.0000 </r>
       <r>    -9.1748     0.0000     3.0000 </r>
       <r>    -9.0695     0.0000     3.0000 </r>
       <r>    -8.9643     0.0000     3.0000 </r>
       <r>    -8.8590     0.0000     3.0000 </r>
       <r>    -8.7538     0.0000     3.0000 </r>
       <r>    -8.6485     0.2585     3.0272 </r>
       <r>    -8.5433     7.8548     3.8539 </r>
       <r>    -8.4381     1.3883     4.0000 </r>
       <r>    -8.3328     0.0003     4.0000 </r>
       <r>    -8.2276     0.0000     4.0000 </r>
       <r>    -8.1223     0.0000     4.0000 </r>
       <r>    -8.0171     0.0000     4.0000 </r>
       <r>    -7.9118     0.0000     4.0000 </r>
       <r>    -7.8066     0.0000     4.0000 </r>
       <r>    -7.7014     0.0000     4.0000 </r>
       <r>    -7.5961     0.0000     4.0000 </r>
       <r>    -7.4909     0.0000     4.0000 </r>
       <r>    -7.3856     0.0000     4.0000 </r>
       <r>    -7.2804     0.0000     4.0000 </r>
       <r>    -7.1752     0.0000     4.0000 </r>
       <r>    -7.0699     0.0000     4.0000 </r>
       <r>    -6.9647     0.0000     4.0000 </r>
       <r>    -6.8594     0.0000     4.0000 </r>
       <r>    -6.7542     0.0000     4.0000 </r>
       <r>    -6.6489     0.0000     4.0000 </r>
       <r>    -6.5437     0.0000     4.0000 </r>
       <r>    -6.4385     0.0000     4.0000 </r>
       <r>    -6.3332     0.0000     4.0000 </r>
       <r>    -6.2280     0.0000     4.0000 </r>
       <r>    -6.1227     0.0000     4.0000 </r>
       <r>    -6.0175     0.0000     4.0000 </r>
       <r>    -5.9122     0.0000     4.0000 </r>
       <r>    -5.8070     0.0000     4.0000 </r>
       <r>    -5.7018     0.0000     4.0000 </r>
       <r>    -5.5965     0.0000     4.0000 </r>
       <r>    -5.4913     0.0000     4.0000 </r>
       <r>    -5.3860     0.0000     4.0000 </r>
       <r>    -5.2808     0.0000     4.0000 </r>
       <r>    -5.1755     0.0000     4.0000 </r>
       <r>    -5.0703     0.0000     4.0000 </r>
       <r>    -4.9651     0.0000     4.0000 </r>
       <r>    -4.8598     0.0000     4.0000 </r>
       <r>    -4.7546     0.0000     4.0000 </r>
       <r>    -4.6493     0.0000     4.0000 </r>
       <r>    -4.5441     0.0000     4.0000 </r>
       <r>    -4.4389     0.0000     4.0000 </r>
       <r>    -4.3336     0.0000     4.0000 </r>
       <r>    -4.2284     0.0000     4.0000 </r>
       <r>    -4.1231     0.0000     4.0000 </r>
       <r>    -4.0179     0.0000     4.0000 </r>
       <r>    -3.9126     0.0000     4.0000 </r>
       <r>    -3.8074     0.0000     4.0000 </r>
       <r>    -3.7022     0.0000     4.0000 </r>
       <r>    -3.5969     0.0000     4.0000 </r>
       <r>    -3.4917     0.0000     4.0000 </r>
       <r>    -3.3864     0.0000     4.0000 </r>
       <r>    -3.2812     0.0000     4.0000 </r>
       <r>    -3.1759     0.0000     4.0000 </r>
       <r>    -3.0707     0.0000     4.0000 </r>
       <r>    -2.9655     0.0000     4.0000 </r>
       <r>    -2.8602     0.0000     4.0000 </r>
       <r>    -2.7550     0.0000     4.0000 </r>
       <r>    -2.6497     0.0000     4.0000 </r>
       <r>    -2.5445     0.0000     4.0000 </r>
       <r>    -2.4392     0.0000     4.0000 </r>
       <r>    -2.3340     0.0000     4.0000 </r>
       <r>    -2.2288     0.0000     4.0000 </r>
       <r>    -2.1235     0.0000     4.0000 </r>
       <r>    -2.0183     0.0000     4.0000 </r>
       <r>    -1.9130     0.0000     4.0000 </r>
       <r>    -1.8078     0.0000     4.0000 </r>
       <r>    -1.7025     0.0000     4.0000 </r>
       <r>    -1.5973     0.0000     4.0000 </r>
       <r>    -1.4921     0.0000     4.0000 </r>
       <r>    -1.3868     0.0000     4.0000 </r>
       <r>    -1.2816     0.0000     4.0000 </r>
       <r>    -1.1763     0.0000     4.0000 </r>
       <r>    -1.0711     0.0000     4.0000 </r>
       <r>    -0.9659     0.0000     4.0000 </r>
       <r>    -0.8606     0.0000     4.0000 </r>
       <r>    -0.7554     0.0000     4.0000 </r>
       <r>    -0.6501     0.0556     4.0059 </r>
       <r>    -0.5449     6.3648     4.6757 </r>
       <r>    -0.4396     3.0787     4.9997 </r>
       <r>    -0.3344     0.0028     5.0000 </r>
       <r>    -0.2292     0.0000     5.0000 </r>
       <r>    -0.1239     0.0000     5.0000 </r>
       <r>    -0.0187     0.0000     5.0000 </r>
       <r>     0.0866     0.0000     5.0000 </r>
       <r>     0.1918     0.0000     5.0000 </r>
       <r>     0.2971     0.0000     5.0000 </r>
       <r>     0.4023     0.0000     5.0000 </r>
       <r>     0.5075     0.0000     5.0000 </r>
       <r>     0.6128     0.0000     5.0000 </r>
       <r>     0.7180     0.0000     5.0000 </r>
       <r>     0.8233     0.0000     5.0000 </r>
       <r>     0.9285     0.0000     5.0000 </r>
       <r>     1.0338     0.0000     5.0000 </r>
       <r>     1.1390     0.0000     5.0000 </r>
       <r>     1.2442     0.0000     5.0000 </r>
       <r>     1.3495     0.0126     5.0013 </r>
       <r>     1.4547     4.6318     5.4888 </r>
       <r>     1.5600     5.1850     6.0345 </r>
       <r>     1.6652     8.0406     6.8807 </r>
       <r>     1.7705     1.1336     7.0000 </r>
       <r>     1.8757     0.0002     7.0000 </r>
       <r>     1.9809     0.0000     7.0000 </r>
       <r>     2.0862     0.0000     7.0000 </r>
       <r>     2.1914     0.0000     7.0000 </r>
       <r>     2.2967     0.0000     7.0000 </r>
       <r>     2.4019     0.0000     7.0000 </r>
       <r>     2.5071     0.0000     7.0000 </r>
       <r>     2.6124     0.0000     7.0000 </r>
       <r>     2.7176     0.1232     7.0130 </r>
       <r>     2.8229     7.2241     7.7733 </r>
       <r>     2.9281     2.6365     8.0507 </r>
       <r>     3.0334     8.1668     8.9102 </r>
       <r>     3.1386     4.1684     9.3489 </r>
       <r>     3.2438     6.6443    10.0482 </r>
       <r>     3.3491     8.2452    10.9159 </r>
       <r>     3.4543     6.3233    11.5814 </r>
       <r>     3.5596     3.9706    11.9993 </r>
       <r>     3.6648     0.0069    12.0000 </r>
       <r>     3.7701     0.0000    12.0000 </r>
       <r>     3.8753     0.0000    12.0000 </r>
       <r>     3.9805     0.0000    12.0000 </r>
       <r>     4.0858     0.0000    12.0000 </r>
       <r>     4.1910     0.0000    12.0000 </r>
       <r>     4.2963     0.0000    12.0000 </r>
       <r>     4.4015     0.0000    12.0000 </r>
       <r>     4.5068     0.0000    12.0000 </r>
       <r>     4.6120     0.0000    12.0000 </r>
       <r>     4.7172     0.0000    12.0000 </r>
       <r>     4.8225     0.0000    12.0000 </r>
       <r>     4.9277     0.0000    12.0000 </r>
       <r>     5.0330     0.0000    12.0000 </r>
       <r>     5.1382     0.0000    12.0000 </r>
      </set>
     </set>
    </array>
   </total>
  </dos>
 </calculation>
 <structure name="finalpos" >
  <crystal>
   <varray name="basis" >
    <v>       7.39873744      -0.04547298       0.01222249 </v>
    <v>      -3.52933348       6.57562522      -0.02194566 </v>
    <v>      -3.36854923       2.02825489       8.62804584 </v>
   </varray>
   <i name="volume">    418.89035399 </i>
   <varray name="rec_basis" >
    <v>       0.13554694       0.07287152       0.03578963 </v>
    <v>       0.00099581       0.15249293      -0.03545880 </v>
    <v>      -0.00018948       0.00028464       0.11576021 </v>
   </varray>
  </crystal>
  <varray name="positions" >
   <v>       0.48847967       0.48457571       0.59951320 </v>
  </varray>
 </structure>
</modeling>
