Co–organic framework                  
           1
     9.813847    0.000000    0.000000
    -4.628217    8.653970    0.000000
    -4.470393    2.678746   11.576603
   C 
   1
Direct configuration=     1
   0.48852700  0.48454300  0.59968400
Co–organic framework                  
           1
     9.786360   -0.000194   -0.000119
    -4.615425    8.629923    0.000208
    -4.458066    2.671565   11.544237
   C 
   1
Direct configuration=     2
   0.48852690  0.48454351  0.59968224
Co–organic framework                  
           1
     9.703901   -0.000774   -0.000476
    -4.577049    8.557782    0.000830
    -4.421084    2.650022   11.447138
   C 
   1
Direct configuration=     3
   0.48852658  0.48454504  0.59967693
Co–organic framework                  
           1
     9.538983   -0.001935   -0.001190
    -4.500298    8.413499    0.002076
    -4.347120    2.606936   11.252940
   C 
   1
Direct configuration=     4
   0.48852595  0.48454813  0.59966622
Co–organic framework                  
           1
     9.209146   -0.004258   -0.002617
    -4.346794    8.124935    0.004567
    -4.199191    2.520765   10.864545
   C 
   1
Direct configuration=     5
   0.48852467  0.48455442  0.59964443
Co–organic framework                  
           1
     8.549472   -0.008903   -0.005473
    -4.039787    7.547806    0.009549
    -3.903334    2.348421   10.087754
   C 
   1
Direct configuration=     6
   0.48852202  0.48456747  0.59959929
Co–organic framework                  
           1
     7.230124   -0.018193   -0.011184
    -3.425774    6.393549    0.019514
    -3.311620    2.003734    8.534172
   C 
   1
Direct configuration=     7
   0.48851630  0.48459568  0.59950205
Co–organic framework                  
           1
     7.391245   -0.017059   -0.010486
    -3.500758    6.534508    0.018297
    -3.383881    2.045828    8.723898
   C 
   1
Direct configuration=     8
   0.48851712  0.48459157  0.59951610
Co–organic framework                  
           1
     7.385462   -0.017099   -0.010511
    -3.498066    6.529448    0.018341
    -3.381287    2.044317    8.717087
   C 
   1
Direct configuration=     9
   0.48851709  0.48459172  0.59951560
Co–organic framework                  
           1
     7.391082   -0.017060   -0.010487
    -3.500682    6.534365    0.018298
    -3.383808    2.045785    8.723705
   C 
   1
Direct configuration=    10
   0.48851712  0.48459158  0.59951608
Co–organic framework                  
           1
     7.391242   -0.017059   -0.010486
    -3.500756    6.534505    0.018297
    -3.383879    2.045827    8.723894
   C 
   1
Direct configuration=    11
   0.48851712  0.48459157  0.59951610
Co–organic framework                  
           1
     7.391245   -0.017059   -0.010486
    -3.500758    6.534508    0.018297
    -3.383881    2.045828    8.723898
   C 
   1
Direct configuration=    12
   0.48851712  0.48459157  0.59951610
Co–organic framework                  
           1
     7.391243   -0.017059   -0.010486
    -3.500757    6.534506    0.018297
    -3.383880    2.045827    8.723895
   C 
   1
Direct configuration=    13
   0.48851712  0.48459157  0.59951610
Co–organic framework                  
           1
     7.391244   -0.017059   -0.010486
    -3.500757    6.534507    0.018297
    -3.383880    2.045828    8.723896
   C 
   1
Direct configuration=    14
   0.48851712  0.48459157  0.59951610
Co–organic framework                  
           1
     7.391243   -0.017059   -0.010486
    -3.500757    6.534507    0.018297
    -3.383880    2.045827    8.723896
   C 
   1
Direct configuration=    15
   0.48851712  0.48459157  0.59951610
Co–organic framework                  
           1
     7.391243   -0.017059   -0.010486
    -3.500757    6.534507    0.018297
    -3.383880    2.045827    8.723895
   C 
   1
Direct configuration=    16
   0.48851712  0.48459157  0.59951610
Co–organic framework                  
           1
     7.391243   -0.017059   -0.010486
    -3.500757    6.534506    0.018297
    -3.383880    2.045827    8.723895
   C 
   1
Direct configuration=    17
   0.48851712  0.48459157  0.59951610
Co–organic framework                  
           1
     7.391243   -0.017059   -0.010486
    -3.500757    6.534506    0.018297
    -3.383880    2.045827    8.723895
   C 
   1
Direct configuration=    18
   0.48851712  0.48459157  0.59951610
Co–organic framework                  
           1
     7.391243   -0.017059   -0.010486
    -3.500757    6.534506    0.018297
    -3.383880    2.045827    8.723895
   C 
   1
Direct configuration=    19
   0.48851712  0.48459157  0.59951610
Co–organic framework                  
           1
     7.398737   -0.045473    0.012222
    -3.529333    6.575625   -0.021946
    -3.368549    2.028255    8.628046
   C 
   1
Direct configuration=    20
   0.48847967  0.48457571  0.59951320
