 175 175   0   0
  0.2275566E+02  0.2598693E-08  0.2598599E-08  0.6809832E-09  0.5000000E-15
  1.000000000000000E-004
  CAR 
 Co–organic framework                  
      6.96949720    -26.19651671  301     -0.80738476      1.00000000
    -26.197  0.0000E+00  0.0000E+00  0.0000E+00  0.0000E+00
    -26.086  0.0000E+00  0.0000E+00  0.0000E+00  0.0000E+00
    -25.975  0.0000E+00  0.0000E+00  0.0000E+00  0.0000E+00
    -25.865  0.0000E+00  0.0000E+00  0.0000E+00  0.0000E+00
    -25.754  0.0000E+00  0.0000E+00  0.0000E+00  0.0000E+00
    -25.644  0.0000E+00  0.0000E+00  0.0000E+00  0.0000E+00
    -25.533  0.0000E+00  0.0000E+00  0.0000E+00  0.0000E+00
    -25.423  0.0000E+00  0.0000E+00  0.0000E+00  0.0000E+00
    -25.312  0.0000E+00  0.0000E+00  0.0000E+00  0.0000E+00
    -25.202  0.0000E+00  0.0000E+00  0.0000E+00  0.0000E+00
    -25.091  0.0000E+00  0.0000E+00  0.0000E+00  0.0000E+00
    -24.980  0.0000E+00  0.1004E-17  0.0000E+00  0.1110E-18
    -24.870  0.2431E-12  0.1406E-08  0.2688E-13  0.1554E-09
    -24.759  0.2698E-05  0.2108E-03  0.2982E-06  0.2330E-04
    -24.649  0.3432E-02  0.7679E-02  0.3797E-03  0.8722E-03
    -24.538  0.5590E-02  0.1156E-02  0.9977E-03  0.1000E-02
    -24.428  0.2355E-02  0.7940E-04  0.1258E-02  0.1009E-02
    -24.317  0.7434E-02  0.1498E-01  0.2080E-02  0.2665E-02
    -24.207  0.2627E-01  0.1527E-01  0.4984E-02  0.4354E-02
    -24.096  0.4744E-01  0.4642E-01  0.1023E-01  0.9486E-02
    -23.985  0.4944E-01  0.3619E-01  0.1569E-01  0.1349E-01
    -23.875  0.2946E-01  0.3514E-01  0.1895E-01  0.1737E-01
    -23.764  0.4440E-03  0.1459E-01  0.1900E-01  0.1899E-01
    -23.654  0.2647E-08  0.1351E-03  0.1900E-01  0.1900E-01
    -23.543  0.4519E-17  0.3785E-09  0.1900E-01  0.1900E-01
    -23.433  0.2922E-08  0.8687E-10  0.1900E-01  0.1900E-01
    -23.322  0.2909E-03  0.5744E-04  0.1903E-01  0.1901E-01
    -23.212  0.7843E-02  0.6611E-02  0.1990E-01  0.1974E-01
    -23.101  0.1708E-02  0.2501E-02  0.2009E-01  0.2001E-01
    -22.990  0.7905E-02  0.7312E-02  0.2096E-01  0.2082E-01
    -22.880  0.3441E-03  0.1610E-02  0.2100E-01  0.2100E-01
    -22.769  0.4315E-08  0.2319E-06  0.2100E-01  0.2100E-01
    -22.659  0.4520E-09  0.8950E-04  0.2100E-01  0.2101E-01
    -22.548  0.1259E-03  0.8031E-02  0.2101E-01  0.2190E-01
    -22.438  0.8998E-02  0.2409E-01  0.2201E-01  0.2456E-01
    -22.327  0.5232E-01  0.2267E-01  0.2779E-01  0.2707E-01
    -22.217  0.7010E-01  0.1015E-01  0.3554E-01  0.2819E-01
    -22.106  0.1415E-01  0.3311E-01  0.3711E-01  0.3185E-01
    -21.995  0.7888E-02  0.4647E-01  0.3798E-01  0.3699E-01
    -21.885  0.7247E-02  0.1794E-01  0.3878E-01  0.3897E-01
    -21.774  0.3247E-01  0.3690E-01  0.4237E-01  0.4305E-01
    -21.664  0.7224E-01  0.3604E-01  0.5036E-01  0.4703E-01
    -21.553  0.4600E-01  0.4314E-01  0.5544E-01  0.5180E-01
    -21.443  0.5029E-02  0.3435E-01  0.5600E-01  0.5560E-01
    -21.332  0.5500E-05  0.3601E-02  0.5600E-01  0.5600E-01
    -21.222  0.8976E-12  0.3678E-06  0.5600E-01  0.5600E-01
    -21.111  0.0000E+00  0.4400E-14  0.5600E-01  0.5600E-01
    -21.001  0.0000E+00  0.0000E+00  0.5600E-01  0.5600E-01
    -20.890  0.0000E+00  0.0000E+00  0.5600E-01  0.5600E-01
    -20.779  0.0000E+00  0.0000E+00  0.5600E-01  0.5600E-01
    -20.669  0.2511E-17  0.0000E+00  0.5600E-01  0.5600E-01
    -20.558  0.2979E-08  0.1040E-10  0.5600E-01  0.5600E-01
    -20.448  0.3195E-03  0.2654E-04  0.5604E-01  0.5600E-01
    -20.337  0.1367E-01  0.1000E-01  0.5755E-01  0.5711E-01
    -20.227  0.4099E-02  0.8052E-02  0.5800E-01  0.5800E-01
    -20.116  0.2131E-05  0.1052E-04  0.5800E-01  0.5800E-01
    -20.006  0.5035E-03  0.1270E-03  0.5806E-01  0.5801E-01
    -19.895  0.7977E-02  0.7326E-02  0.5894E-01  0.5882E-01
    -19.784  0.2291E-02  0.1599E-02  0.5919E-01  0.5900E-01
    -19.674  0.7209E-02  0.4399E-02  0.5999E-01  0.5949E-01
    -19.563  0.1099E-03  0.4631E-02  0.6000E-01  0.6000E-01
    -19.453  0.3384E-09  0.8915E-05  0.6000E-01  0.6000E-01
    -19.342  0.0000E+00  0.2228E-11  0.6000E-01  0.6000E-01
    -19.232  0.0000E+00  0.0000E+00  0.6000E-01  0.6000E-01
    -19.121  0.0000E+00  0.0000E+00  0.6000E-01  0.6000E-01
    -19.011  0.0000E+00  0.0000E+00  0.6000E-01  0.6000E-01
    -18.900  0.0000E+00  0.0000E+00  0.6000E-01  0.6000E-01
    -18.789  0.0000E+00  0.0000E+00  0.6000E-01  0.6000E-01
    -18.679  0.5651E-11  0.6441E-10  0.6000E-01  0.6000E-01
    -18.568  0.1452E-04  0.4963E-04  0.6000E-01  0.6001E-01
    -18.458  0.5154E-02  0.6465E-02  0.6057E-01  0.6072E-01
    -18.347  0.3872E-02  0.2530E-02  0.6100E-01  0.6100E-01
    -18.237  0.4310E-05  0.1332E-05  0.6100E-01  0.6100E-01
    -18.126  0.8948E-03  0.1938E-02  0.6110E-01  0.6121E-01
    -18.016  0.1370E-01  0.1383E-01  0.6261E-01  0.6274E-01
    -17.905  0.3130E-01  0.2520E-01  0.6607E-01  0.6553E-01
    -17.794  0.2428E-01  0.1749E-01  0.6876E-01  0.6746E-01
    -17.684  0.2184E-02  0.1383E-01  0.6900E-01  0.6899E-01
    -17.573  0.3124E-06  0.7261E-04  0.6900E-01  0.6900E-01
    -17.463  0.5264E-14  0.1054E-09  0.6900E-01  0.6900E-01
    -17.352  0.0000E+00  0.0000E+00  0.6900E-01  0.6900E-01
    -17.242  0.0000E+00  0.0000E+00  0.6900E-01  0.6900E-01
    -17.131  0.0000E+00  0.0000E+00  0.6900E-01  0.6900E-01
    -17.021  0.0000E+00  0.0000E+00  0.6900E-01  0.6900E-01
    -16.910  0.0000E+00  0.0000E+00  0.6900E-01  0.6900E-01
    -16.799  0.0000E+00  0.0000E+00  0.6900E-01  0.6900E-01
    -16.689  0.0000E+00  0.0000E+00  0.6900E-01  0.6900E-01
    -16.578  0.5687E-14  0.1395E-12  0.6900E-01  0.6900E-01
    -16.468  0.3224E-06  0.1985E-05  0.6900E-01  0.6900E-01
    -16.357  0.1815E-02  0.3181E-02  0.6920E-01  0.6935E-01
    -16.247  0.1249E-01  0.1191E-01  0.7058E-01  0.7067E-01
    -16.136  0.1929E-01  0.1717E-01  0.7271E-01  0.7257E-01
    -16.026  0.2602E-01  0.2263E-01  0.7559E-01  0.7507E-01
    -15.915  0.2131E-01  0.2298E-01  0.7795E-01  0.7761E-01
    -15.804  0.4743E-03  0.3525E-02  0.7800E-01  0.7800E-01
    -15.694  0.3413E-06  0.1108E-04  0.7800E-01  0.7800E-01
    -15.583  0.1828E-02  0.4817E-02  0.7820E-01  0.7853E-01
    -15.473  0.7118E-02  0.4212E-02  0.7899E-01  0.7900E-01
    -15.362  0.9885E-04  0.5970E-05  0.7900E-01  0.7900E-01
    -15.252  0.2699E-09  0.1049E-11  0.7900E-01  0.7900E-01
    -15.141  0.0000E+00  0.0000E+00  0.7900E-01  0.7900E-01
    -15.031  0.1101E-11  0.7350E-10  0.7900E-01  0.7900E-01
    -14.920  0.6134E-05  0.5298E-04  0.7900E-01  0.7901E-01
    -14.810  0.4766E-02  0.7479E-02  0.7953E-01  0.7983E-01
    -14.699  0.2414E-01  0.1996E-01  0.8220E-01  0.8204E-01
    -14.588  0.3025E-01  0.1874E-01  0.8554E-01  0.8411E-01
    -14.478  0.1305E-01  0.1939E-01  0.8698E-01  0.8626E-01
    -14.367  0.1555E-03  0.6722E-02  0.8700E-01  0.8700E-01
    -14.257  0.6247E-09  0.8042E-05  0.8700E-01  0.8700E-01
    -14.146  0.0000E+00  0.1598E-11  0.8700E-01  0.8700E-01
    -14.036  0.0000E+00  0.5021E-18  0.8700E-01  0.8700E-01
    -13.925  0.9631E-10  0.1215E-08  0.8700E-01  0.8700E-01
    -13.815  0.6041E-04  0.1976E-03  0.8701E-01  0.8702E-01
    -13.704  0.7495E-02  0.9295E-02  0.8784E-01  0.8805E-01
    -13.593  0.2462E-01  0.2088E-01  0.9056E-01  0.9036E-01
    -13.483  0.2934E-01  0.2376E-01  0.9380E-01  0.9298E-01
    -13.372  0.1961E-01  0.2212E-01  0.9597E-01  0.9543E-01
    -13.262  0.2781E-03  0.5159E-02  0.9600E-01  0.9600E-01
    -13.151  0.3894E-05  0.7467E-03  0.9600E-01  0.9608E-01
    -13.041  0.3782E-02  0.7928E-02  0.9642E-01  0.9696E-01
    -12.930  0.5244E-02  0.3719E-03  0.9700E-01  0.9700E-01
    -12.820  0.1576E-04  0.5181E-08  0.9700E-01  0.9700E-01
    -12.709  0.6621E-11  0.6025E-17  0.9700E-01  0.9700E-01
    -12.598  0.0000E+00  0.0000E+00  0.9700E-01  0.9700E-01
    -12.488  0.0000E+00  0.0000E+00  0.9700E-01  0.9700E-01
    -12.377  0.0000E+00  0.0000E+00  0.9700E-01  0.9700E-01
    -12.267  0.9791E-16  0.6036E-14  0.9700E-01  0.9700E-01
    -12.156  0.2927E-07  0.3380E-06  0.9700E-01  0.9700E-01
    -12.046  0.8694E-03  0.2170E-02  0.9710E-01  0.9724E-01
    -11.935  0.1582E-01  0.1590E-01  0.9884E-01  0.9900E-01
    -11.825  0.2449E-01  0.2139E-01  0.1016E+00  0.1014E+00
    -11.714  0.2669E-01  0.1922E-01  0.1045E+00  0.1035E+00
    -11.603  0.3116E-01  0.3517E-01  0.1079E+00  0.1074E+00
    -11.493  0.2460E-01  0.2353E-01  0.1107E+00  0.1100E+00
    -11.382  0.2386E-01  0.2050E-01  0.1133E+00  0.1122E+00
    -11.272  0.1773E-01  0.1507E-01  0.1153E+00  0.1139E+00
    -11.161  0.6625E-02  0.1784E-01  0.1160E+00  0.1159E+00
    -11.051  0.6102E-03  0.1276E-02  0.1161E+00  0.1160E+00
    -10.940  0.1355E-01  0.1155E-01  0.1176E+00  0.1173E+00
    -10.830  0.1634E-01  0.1236E-01  0.1194E+00  0.1187E+00
    -10.719  0.1274E-01  0.1394E-01  0.1208E+00  0.1202E+00
    -10.608  0.1561E-01  0.1529E-01  0.1225E+00  0.1219E+00
    -10.498  0.1271E-01  0.9103E-02  0.1239E+00  0.1229E+00
    -10.387  0.8895E-03  0.9948E-02  0.1240E+00  0.1240E+00
    -10.277  0.1258E-01  0.1161E-01  0.1254E+00  0.1253E+00
    -10.166  0.1796E-01  0.1571E-01  0.1274E+00  0.1270E+00
    -10.056  0.2767E-01  0.2098E-01  0.1304E+00  0.1293E+00
     -9.945  0.1890E-01  0.1802E-01  0.1325E+00  0.1313E+00
     -9.835  0.2314E-01  0.2427E-01  0.1351E+00  0.1340E+00
     -9.724  0.2260E-01  0.2418E-01  0.1376E+00  0.1367E+00
     -9.614  0.3314E-01  0.2203E-01  0.1413E+00  0.1391E+00
     -9.503  0.8501E-02  0.2525E-01  0.1422E+00  0.1419E+00
     -9.392  0.2160E-01  0.1508E-01  0.1446E+00  0.1436E+00
     -9.282  0.4023E-01  0.3736E-01  0.1490E+00  0.1477E+00
     -9.171  0.3231E-01  0.3131E-01  0.1526E+00  0.1512E+00
     -9.061  0.2591E-01  0.2574E-01  0.1555E+00  0.1540E+00
     -8.950  0.4119E-01  0.3997E-01  0.1600E+00  0.1584E+00
     -8.840  0.3223E-01  0.3631E-01  0.1636E+00  0.1625E+00
     -8.729  0.4157E-01  0.3827E-01  0.1682E+00  0.1667E+00
     -8.619  0.3581E-01  0.2870E-01  0.1721E+00  0.1699E+00
     -8.508  0.4147E-01  0.4406E-01  0.1767E+00  0.1747E+00
     -8.397  0.3477E-01  0.3003E-01  0.1806E+00  0.1781E+00
     -8.287  0.1307E-01  0.3534E-01  0.1820E+00  0.1820E+00
     -8.176  0.3085E-01  0.2533E-01  0.1854E+00  0.1848E+00
     -8.066  0.3279E-01  0.2780E-01  0.1890E+00  0.1878E+00
     -7.955  0.3021E-01  0.3197E-01  0.1924E+00  0.1914E+00
     -7.845  0.2585E-01  0.3199E-01  0.1952E+00  0.1949E+00
     -7.734  0.2729E-01  0.2342E-01  0.1983E+00  0.1975E+00
     -7.624  0.1954E-01  0.1934E-01  0.2004E+00  0.1996E+00
     -7.513  0.1640E-01  0.2238E-01  0.2022E+00  0.2021E+00
     -7.402  0.4618E-01  0.3508E-01  0.2073E+00  0.2060E+00
     -7.292  0.3721E-01  0.2512E-01  0.2115E+00  0.2088E+00
     -7.181  0.2512E-01  0.4874E-01  0.2142E+00  0.2141E+00
     -7.071  0.4959E-01  0.5088E-01  0.2197E+00  0.2198E+00
     -6.960  0.7560E-01  0.4876E-01  0.2281E+00  0.2252E+00
     -6.850  0.5715E-01  0.4141E-01  0.2344E+00  0.2297E+00
     -6.739  0.3815E-01  0.5233E-01  0.2386E+00  0.2355E+00
     -6.629  0.1253E-01  0.2209E-01  0.2400E+00  0.2380E+00
     -6.518  0.5105E-02  0.9247E-02  0.2406E+00  0.2390E+00
     -6.407  0.8197E-02  0.1881E-01  0.2415E+00  0.2411E+00
     -6.297  0.2615E-01  0.2381E-01  0.2444E+00  0.2437E+00
     -6.186  0.3948E-01  0.2096E-01  0.2487E+00  0.2460E+00
     -6.076  0.1258E-01  0.1526E-01  0.2501E+00  0.2477E+00
     -5.965  0.1263E-01  0.3563E-01  0.2515E+00  0.2516E+00
     -5.855  0.2745E-01  0.2020E-01  0.2545E+00  0.2539E+00
     -5.744  0.2414E-01  0.1524E-01  0.2572E+00  0.2556E+00
     -5.634  0.2591E-01  0.1275E-01  0.2601E+00  0.2570E+00
     -5.523  0.1902E-01  0.6334E-02  0.2622E+00  0.2577E+00
     -5.412  0.3334E-01  0.3710E-01  0.2659E+00  0.2618E+00
     -5.302  0.3452E-01  0.4647E-01  0.2697E+00  0.2669E+00
     -5.191  0.4099E-01  0.4276E-01  0.2742E+00  0.2716E+00
     -5.081  0.4975E-01  0.2581E-01  0.2797E+00  0.2745E+00
     -4.970  0.4461E-01  0.3232E-01  0.2846E+00  0.2781E+00
     -4.860  0.3592E-01  0.3546E-01  0.2886E+00  0.2820E+00
     -4.749  0.2967E-01  0.2689E-01  0.2919E+00  0.2850E+00
     -4.639  0.3532E-01  0.4528E-01  0.2958E+00  0.2900E+00
     -4.528  0.4734E-01  0.4594E-01  0.3010E+00  0.2950E+00
     -4.418  0.4796E-01  0.4646E-01  0.3063E+00  0.3002E+00
     -4.307  0.5529E-01  0.5013E-01  0.3124E+00  0.3057E+00
     -4.196  0.5859E-01  0.3469E-01  0.3189E+00  0.3096E+00
     -4.086  0.4112E-01  0.5056E-01  0.3235E+00  0.3151E+00
     -3.975  0.1810E-01  0.3834E-01  0.3255E+00  0.3194E+00
     -3.865  0.2634E-01  0.2616E-01  0.3284E+00  0.3223E+00
     -3.754  0.2020E-01  0.3494E-01  0.3306E+00  0.3261E+00
     -3.644  0.3164E-01  0.3568E-01  0.3341E+00  0.3301E+00
     -3.533  0.4633E-01  0.4975E-01  0.3392E+00  0.3356E+00
     -3.423  0.6009E-01  0.4839E-01  0.3459E+00  0.3409E+00
     -3.312  0.4927E-01  0.3407E-01  0.3513E+00  0.3447E+00
     -3.201  0.2975E-01  0.3039E-01  0.3546E+00  0.3481E+00
     -3.091  0.1428E-01  0.1786E-01  0.3562E+00  0.3500E+00
     -2.980  0.4344E-01  0.4147E-01  0.3610E+00  0.3546E+00
     -2.870  0.6313E-01  0.4621E-01  0.3680E+00  0.3597E+00
     -2.759  0.5519E-01  0.3469E-01  0.3741E+00  0.3636E+00
     -2.649  0.4981E-01  0.2716E-01  0.3796E+00  0.3666E+00
     -2.538  0.4709E-01  0.2009E-01  0.3848E+00  0.3688E+00
     -2.428  0.4406E-01  0.8720E-02  0.3897E+00  0.3698E+00
     -2.317  0.1753E-01  0.4315E-02  0.3916E+00  0.3702E+00
     -2.206  0.2197E-01  0.2871E-01  0.3940E+00  0.3734E+00
     -2.096  0.2900E-01  0.4623E-01  0.3972E+00  0.3785E+00
     -1.985  0.2946E-01  0.1283E-01  0.4005E+00  0.3799E+00
     -1.875  0.2142E-01  0.1476E-01  0.4029E+00  0.3816E+00
     -1.764  0.2604E-01  0.2949E-01  0.4057E+00  0.3848E+00
     -1.654  0.3176E-01  0.1977E-01  0.4092E+00  0.3870E+00
     -1.543  0.4108E-01  0.2427E-01  0.4138E+00  0.3897E+00
     -1.433  0.1967E-01  0.3819E-01  0.4160E+00  0.3939E+00
     -1.322  0.2794E-01  0.3382E-01  0.4191E+00  0.3977E+00
     -1.211  0.5205E-01  0.2781E-01  0.4248E+00  0.4007E+00
     -1.101  0.2875E-01  0.5938E-01  0.4280E+00  0.4073E+00
     -0.990  0.1781E-01  0.4812E-01  0.4300E+00  0.4126E+00
     -0.880  0.4370E-03  0.4685E-02  0.4300E+00  0.4131E+00
     -0.769  0.4898E-02  0.1218E-01  0.4305E+00  0.4145E+00
     -0.659  0.1431E-01  0.2060E-01  0.4321E+00  0.4168E+00
     -0.548  0.2268E-01  0.2282E-01  0.4346E+00  0.4193E+00
     -0.438  0.3335E-02  0.2880E-01  0.4350E+00  0.4225E+00
     -0.327  0.1114E-04  0.1381E-01  0.4350E+00  0.4240E+00
     -0.216  0.4789E-02  0.8097E-02  0.4355E+00  0.4249E+00
     -0.106  0.6912E-02  0.1010E-01  0.4363E+00  0.4260E+00
      0.005  0.1799E-01  0.1099E-01  0.4383E+00  0.4272E+00
      0.115  0.2545E-01  0.2157E-01  0.4411E+00  0.4296E+00
      0.226  0.8156E-02  0.3341E-01  0.4420E+00  0.4333E+00
      0.336  0.5901E-02  0.2931E-01  0.4427E+00  0.4365E+00
      0.447  0.2322E-01  0.2262E-01  0.4452E+00  0.4390E+00
      0.557  0.4086E-01  0.3178E-01  0.4497E+00  0.4425E+00
      0.668  0.3894E-01  0.3241E-01  0.4540E+00  0.4461E+00
      0.779  0.3318E-01  0.4051E-01  0.4577E+00  0.4506E+00
      0.889  0.2649E-02  0.4317E-01  0.4580E+00  0.4554E+00
      1.000  0.5671E-06  0.1722E-01  0.4580E+00  0.4573E+00
      1.110  0.1500E-13  0.6403E-02  0.4580E+00  0.4580E+00
      1.221  0.1004E-17  0.4471E-04  0.4580E+00  0.4580E+00
      1.331  0.1578E-08  0.5208E-10  0.4580E+00  0.4580E+00
      1.442  0.2219E-03  0.0000E+00  0.4580E+00  0.4580E+00
      1.552  0.7709E-02  0.3449E-13  0.4589E+00  0.4580E+00
      1.663  0.1115E-02  0.9064E-06  0.4590E+00  0.4580E+00
      1.773  0.4330E-06  0.2505E-02  0.4590E+00  0.4583E+00
      1.884  0.1851E-02  0.6974E-02  0.4592E+00  0.4590E+00
      1.995  0.7262E-02  0.8297E-02  0.4600E+00  0.4600E+00
      2.105  0.1070E-01  0.1470E-01  0.4612E+00  0.4616E+00
      2.216  0.3702E-01  0.3417E-01  0.4653E+00  0.4654E+00
      2.326  0.4406E-01  0.3360E-01  0.4702E+00  0.4691E+00
      2.437  0.5826E-01  0.4663E-01  0.4766E+00  0.4742E+00
      2.547  0.2904E-01  0.2830E-01  0.4798E+00  0.4774E+00
      2.658  0.1240E-01  0.1875E-01  0.4812E+00  0.4794E+00
      2.768  0.7524E-02  0.2085E-01  0.4820E+00  0.4817E+00
      2.879  0.7839E-02  0.1122E-01  0.4829E+00  0.4830E+00
      2.990  0.1538E-01  0.8268E-02  0.4846E+00  0.4839E+00
      3.100  0.6652E-02  0.1566E-01  0.4853E+00  0.4856E+00
      3.211  0.1465E-01  0.1225E-01  0.4869E+00  0.4870E+00
      3.321  0.2104E-01  0.9369E-02  0.4893E+00  0.4880E+00
      3.432  0.1977E-01  0.1974E-01  0.4914E+00  0.4902E+00
      3.542  0.1360E-01  0.1866E-01  0.4929E+00  0.4923E+00
      3.653  0.6185E-02  0.1276E-01  0.4936E+00  0.4937E+00
      3.763  0.1908E-01  0.1285E-01  0.4957E+00  0.4951E+00
      3.874  0.1323E-01  0.1592E-01  0.4972E+00  0.4969E+00
      3.985  0.1931E-01  0.1409E-01  0.4993E+00  0.4984E+00
      4.095  0.2974E-01  0.3361E-01  0.5026E+00  0.5021E+00
      4.206  0.2809E-01  0.2113E-01  0.5057E+00  0.5045E+00
      4.316  0.2677E-01  0.2482E-01  0.5087E+00  0.5072E+00
      4.427  0.2057E-01  0.2752E-01  0.5110E+00  0.5103E+00
      4.537  0.2225E-01  0.1862E-01  0.5134E+00  0.5123E+00
      4.648  0.3047E-01  0.3245E-01  0.5168E+00  0.5159E+00
      4.758  0.2797E-01  0.2421E-01  0.5199E+00  0.5186E+00
      4.869  0.3454E-01  0.3086E-01  0.5237E+00  0.5220E+00
      4.980  0.3643E-01  0.3906E-01  0.5277E+00  0.5263E+00
      5.090  0.3412E-01  0.3328E-01  0.5315E+00  0.5300E+00
      5.201  0.2277E-01  0.2999E-01  0.5340E+00  0.5333E+00
      5.311  0.2117E-01  0.1646E-01  0.5364E+00  0.5351E+00
      5.422  0.2626E-01  0.2587E-01  0.5393E+00  0.5380E+00
      5.532  0.6669E-02  0.1804E-01  0.5400E+00  0.5400E+00
      5.643  0.1302E-04  0.2264E-03  0.5400E+00  0.5400E+00
      5.753  0.4512E-11  0.1410E-08  0.5400E+00  0.5400E+00
      5.864  0.0000E+00  0.0000E+00  0.5400E+00  0.5400E+00
      5.975  0.0000E+00  0.0000E+00  0.5400E+00  0.5400E+00
      6.085  0.0000E+00  0.0000E+00  0.5400E+00  0.5400E+00
      6.196  0.0000E+00  0.0000E+00  0.5400E+00  0.5400E+00
      6.306  0.0000E+00  0.0000E+00  0.5400E+00  0.5400E+00
      6.417  0.0000E+00  0.0000E+00  0.5400E+00  0.5400E+00
      6.527  0.0000E+00  0.0000E+00  0.5400E+00  0.5400E+00
      6.638  0.0000E+00  0.0000E+00  0.5400E+00  0.5400E+00
      6.748  0.0000E+00  0.0000E+00  0.5400E+00  0.5400E+00
      6.859  0.0000E+00  0.0000E+00  0.5400E+00  0.5400E+00
      6.969  0.0000E+00  0.0000E+00  0.5400E+00  0.5400E+00
