 running on   24 total cores
 distrk:  each k-point on   24 cores,    1 groups
 distr:  one band on    4 cores,    6 groups
 using from now: INCAR     
 vasp.5.4.4.18Apr17-6-g9f103f2a35 (build May 21 2019 18:55:53) complex          
  
 POSCAR found type information on POSCAR  O  C  H  Co Li
 POSCAR found :  5 types and     166 ions
 LDA part: xc-table for Pade appr. of Perdew
 POSCAR found type information on POSCAR  O  C  H  Co Li
 POSCAR found :  5 types and     166 ions
 POSCAR, INCAR and KPOINTS ok, starting setup
 FFT: planning ...
 WAVECAR not read
 WARNING: random wavefunctions but no delay for mixing, default for NELMDL
 entering main loop
       N       E                     dE             d eps       ncg     rms          rms(c)
DAV:   1     0.870260881093E+04    0.87026E+04   -0.34507E+05  2088   0.136E+03
DAV:   2     0.809892282377E+03   -0.78927E+04   -0.71094E+04  2412   0.420E+02
DAV:   3    -0.124661554617E+04   -0.20565E+04   -0.19485E+04  3444   0.213E+02
DAV:   4    -0.140809686738E+04   -0.16148E+03   -0.15092E+03  3216   0.676E+01
DAV:   5    -0.141658157177E+04   -0.84847E+01   -0.77924E+01  3420   0.151E+01    0.156E+02
RMM:   6    -0.193125820805E+04   -0.51468E+03   -0.34339E+03  2772   0.135E+02    0.514E+02
RMM:   7    -0.169807335745E+04    0.23318E+03   -0.25326E+02  2071   0.460E+01    0.316E+02
RMM:   8    -0.122486284120E+04    0.47321E+03   -0.54395E+02  2305   0.444E+01    0.806E+01
RMM:   9    -0.144350471270E+04   -0.21864E+03   -0.92665E+01  2337   0.176E+01    0.182E+02
RMM:  10    -0.134919302511E+04    0.94312E+02   -0.10081E+02  2237   0.225E+01    0.152E+02
RMM:  11    -0.124394044466E+04    0.10525E+03   -0.79620E+01  2195   0.195E+01    0.903E+01
RMM:  12    -0.127409820430E+04   -0.30158E+02   -0.59419E+01  2089   0.179E+01    0.121E+02
RMM:  13    -0.126101872431E+04    0.13079E+02   -0.34986E+01  2178   0.131E+01    0.117E+02
RMM:  14    -0.122449417408E+04    0.36525E+02   -0.26131E+01  2201   0.109E+01    0.908E+01
RMM:  15    -0.123024883735E+04   -0.57547E+01   -0.13854E+01  2299   0.730E+00    0.946E+01
RMM:  16    -0.123062457095E+04   -0.37573E+00   -0.17950E+01  2180   0.883E+00    0.863E+01
RMM:  17    -0.121323726730E+04    0.17387E+02   -0.92014E+00  2230   0.613E+00    0.657E+01
RMM:  18    -0.120987357333E+04    0.33637E+01   -0.60243E+00  2197   0.512E+00    0.624E+01
RMM:  19    -0.120887899573E+04    0.99458E+00   -0.47041E+00  2205   0.439E+00    0.604E+01
RMM:  20    -0.120686986823E+04    0.20091E+01   -0.31455E+00  2239   0.349E+00    0.376E+01
RMM:  21    -0.120692198231E+04   -0.52114E-01   -0.15371E+00  2227   0.250E+00    0.385E+01
RMM:  22    -0.120672856544E+04    0.19342E+00   -0.68005E-01  2276   0.175E+00    0.311E+01
RMM:  23    -0.120662306489E+04    0.10550E+00   -0.20893E-01  2181   0.974E-01    0.295E+01
RMM:  24    -0.120784609380E+04   -0.12230E+01   -0.30245E-01  2166   0.100E+00    0.284E+01
RMM:  25    -0.120813701591E+04   -0.29092E+00   -0.13556E-01  2295   0.719E-01    0.266E+01
RMM:  26    -0.120959633806E+04   -0.14593E+01   -0.75946E-01  2174   0.162E+00    0.331E+01
RMM:  27    -0.120936807379E+04    0.22826E+00   -0.48848E-01  2192   0.147E+00    0.266E+01
RMM:  28    -0.121054040684E+04   -0.11723E+01   -0.56997E-01  2181   0.154E+00    0.254E+01
RMM:  29    -0.121091677133E+04   -0.37636E+00   -0.14702E-01  2210   0.837E-01    0.251E+01
RMM:  30    -0.121104636134E+04   -0.12959E+00   -0.47738E-02  2478   0.420E-01    0.251E+01
RMM:  31    -0.121130193794E+04   -0.25558E+00   -0.12865E-01  2263   0.665E-01    0.259E+01
RMM:  32    -0.121167111629E+04   -0.36918E+00   -0.40862E-01  2198   0.125E+00    0.254E+01
RMM:  33    -0.121299162281E+04   -0.13205E+01   -0.42024E-01  2142   0.132E+00    0.277E+01
RMM:  34    -0.121373021801E+04   -0.73860E+00   -0.25113E-01  2229   0.101E+00    0.265E+01
RMM:  35    -0.121506224560E+04   -0.13320E+01   -0.70497E-01  2122   0.153E+00    0.262E+01
RMM:  36    -0.121544252919E+04   -0.38028E+00   -0.52363E-01  2318   0.133E+00    0.262E+01
RMM:  37    -0.121583144807E+04   -0.38892E+00   -0.16848E-01  2311   0.734E-01    0.254E+01
RMM:  38    -0.121609593070E+04   -0.26448E+00   -0.45189E-02  2620   0.307E-01    0.257E+01
RMM:  39    -0.121723172656E+04   -0.11358E+01   -0.16522E-01  2166   0.697E-01    0.238E+01
RMM:  40    -0.121788773317E+04   -0.65601E+00   -0.13217E-01  2202   0.691E-01    0.245E+01
RMM:  41    -0.121785330569E+04    0.34427E-01   -0.41646E-02  2368   0.387E-01    0.257E+01
RMM:  42    -0.121759914330E+04    0.25416E+00   -0.12053E-01  2088   0.629E-01    0.262E+01
RMM:  43    -0.121774023821E+04   -0.14109E+00   -0.26113E-02  2262   0.313E-01    0.263E+01
RMM:  44    -0.121773079387E+04    0.94443E-02   -0.92001E-03  2593   0.150E-01    0.269E+01
RMM:  45    -0.121760485634E+04    0.12594E+00   -0.54041E-02  2090   0.450E-01    0.278E+01
RMM:  46    -0.121781910951E+04   -0.21425E+00   -0.85725E-03  2167   0.184E-01    0.278E+01
RMM:  47    -0.121815118895E+04   -0.33208E+00   -0.11395E-01  2177   0.604E-01    0.265E+01
RMM:  48    -0.121848694248E+04   -0.33575E+00   -0.63710E-01  2172   0.143E+00    0.255E+01
RMM:  49    -0.121597300317E+04    0.25139E+01   -0.64592E-01  2172   0.152E+00    0.251E+01
RMM:  50    -0.121464728662E+04    0.13257E+01   -0.73527E-01  2330   0.149E+00    0.287E+01
RMM:  51    -0.120945771419E+04    0.51896E+01   -0.20028E+00  2147   0.296E+00    0.320E+01
RMM:  52    -0.121007346427E+04   -0.61575E+00   -0.26567E-01  2445   0.990E-01    0.309E+01
RMM:  53    -0.121079746449E+04   -0.72400E+00   -0.66055E-02  2504   0.436E-01    0.298E+01
RMM:  54    -0.121193684524E+04   -0.11394E+01   -0.57894E-02  2186   0.457E-01    0.276E+01
RMM:  55    -0.121299154174E+04   -0.10547E+01   -0.97675E-02  2268   0.576E-01    0.266E+01
RMM:  56    -0.121962143274E+04   -0.66299E+01   -0.18292E+00  2143   0.240E+00    0.249E+01
RMM:  57    -0.122041710856E+04   -0.79568E+00   -0.39655E-01  2227   0.130E+00    0.252E+01
RMM:  58    -0.122045009100E+04   -0.32982E-01   -0.10363E-01  2611   0.556E-01    0.245E+01
RMM:  59    -0.122067908954E+04   -0.22900E+00   -0.57400E-02  2351   0.414E-01    0.254E+01
RMM:  60    -0.122089024691E+04   -0.21116E+00   -0.17283E-01  2242   0.835E-01    0.227E+01
RMM:  61    -0.122013885741E+04    0.75139E+00   -0.70736E-01  2226   0.160E+00    0.296E+01
RMM:  62    -0.122000165256E+04    0.13720E+00   -0.37883E-01  2205   0.128E+00    0.212E+01
RMM:  63    -0.122150037544E+04   -0.14987E+01   -0.42615E-01  2167   0.130E+00    0.221E+01
RMM:  64    -0.122238496975E+04   -0.88459E+00   -0.40180E-01  2164   0.116E+00    0.187E+01
RMM:  65    -0.122289918685E+04   -0.51422E+00   -0.19122E-01  2471   0.715E-01    0.212E+01
RMM:  66    -0.122467649002E+04   -0.17773E+01   -0.17729E+00  2147   0.237E+00    0.347E+01
RMM:  67    -0.122340565264E+04    0.12708E+01   -0.57453E-01  2126   0.169E+00    0.249E+01
RMM:  68    -0.122332733802E+04    0.78315E-01   -0.20171E-01  2431   0.852E-01    0.203E+01
RMM:  69    -0.122338403422E+04   -0.56696E-01   -0.16897E-01  2168   0.792E-01    0.177E+01
RMM:  70    -0.122373458187E+04   -0.35055E+00   -0.14873E-01  2281   0.758E-01    0.227E+01
RMM:  71    -0.122401700644E+04   -0.28242E+00   -0.70548E-01  2118   0.167E+00    0.283E+01
RMM:  72    -0.122318018848E+04    0.83682E+00   -0.39901E-01  2192   0.134E+00    0.221E+01
RMM:  73    -0.122321138117E+04   -0.31193E-01   -0.14923E-01  2428   0.676E-01    0.224E+01
RMM:  74    -0.122333249289E+04   -0.12111E+00   -0.77324E-02  2231   0.538E-01    0.213E+01
RMM:  75    -0.122347049942E+04   -0.13801E+00   -0.40953E-02  2462   0.344E-01    0.197E+01
RMM:  76    -0.122454544429E+04   -0.10749E+01   -0.85630E-01  2145   0.173E+00    0.276E+01
RMM:  77    -0.122410466664E+04    0.44078E+00   -0.38633E-01  2242   0.137E+00    0.223E+01
RMM:  78    -0.122420989628E+04   -0.10523E+00   -0.18569E-01  2353   0.830E-01    0.235E+01
RMM:  79    -0.122424417079E+04   -0.34275E-01   -0.92559E-02  2383   0.526E-01    0.226E+01
RMM:  80    -0.122419863597E+04    0.45535E-01   -0.10459E-01  2254   0.588E-01    0.167E+01
RMM:  81    -0.122449241176E+04   -0.29378E+00   -0.39229E-01  2240   0.127E+00    0.197E+01
RMM:  82    -0.122440087513E+04    0.91537E-01   -0.17313E-01  2224   0.915E-01    0.170E+01
RMM:  83    -0.122421183149E+04    0.18904E+00   -0.13883E-01  2336   0.730E-01    0.158E+01
RMM:  84    -0.122415297486E+04    0.58857E-01   -0.97159E-02  2303   0.635E-01    0.128E+01
RMM:  85    -0.122404561921E+04    0.10736E+00   -0.61806E-02  2376   0.470E-01    0.110E+01
RMM:  86    -0.122440831314E+04   -0.36269E+00   -0.20604E-01  2280   0.880E-01    0.129E+01
RMM:  87    -0.122431872331E+04    0.89590E-01   -0.87535E-02  2314   0.653E-01    0.120E+01
RMM:  88    -0.122432451843E+04   -0.57951E-02   -0.61983E-02  2253   0.502E-01    0.115E+01
RMM:  89    -0.122438874386E+04   -0.64225E-01   -0.73999E-02  2327   0.503E-01    0.110E+01
RMM:  90    -0.122451875623E+04   -0.13001E+00   -0.42712E-02  2370   0.363E-01    0.130E+01
RMM:  91    -0.122452203775E+04   -0.32815E-02   -0.61999E-02  2296   0.499E-01    0.109E+01
RMM:  92    -0.122456904555E+04   -0.47008E-01   -0.30993E-02  2307   0.355E-01    0.108E+01
RMM:  93    -0.122464129936E+04   -0.72254E-01   -0.19381E-02  2476   0.238E-01    0.107E+01
RMM:  94    -0.122470439644E+04   -0.63097E-01   -0.88027E-03  2328   0.176E-01    0.985E+00
RMM:  95    -0.122471452413E+04   -0.10128E-01   -0.30531E-03  2424   0.114E-01    0.957E+00
RMM:  96    -0.122485623165E+04   -0.14171E+00   -0.94144E-02  2214   0.606E-01    0.103E+01
RMM:  97    -0.122493068052E+04   -0.74449E-01   -0.38134E-02  2197   0.409E-01    0.942E+00
RMM:  98    -0.122493232883E+04   -0.16483E-02   -0.17843E-02  2523   0.231E-01    0.942E+00
RMM:  99    -0.122499350110E+04   -0.61172E-01   -0.18080E-02  2188   0.266E-01    0.918E+00
RMM: 100    -0.122503085464E+04   -0.37354E-01   -0.26730E-02  2337   0.312E-01    0.114E+01
RMM: 101    -0.122518530682E+04   -0.15445E+00   -0.13243E-01  2252   0.710E-01    0.127E+01
RMM: 102    -0.122519289143E+04   -0.75846E-02   -0.37140E-02  2240   0.434E-01    0.123E+01
RMM: 103    -0.122520995283E+04   -0.17061E-01   -0.11720E-02  2546   0.190E-01    0.117E+01
RMM: 104    -0.122523428274E+04   -0.24330E-01   -0.36654E-03  2377   0.103E-01    0.113E+01
RMM: 105    -0.122531679159E+04   -0.82509E-01   -0.55248E-03  2214   0.137E-01    0.113E+01
RMM: 106    -0.122537234007E+04   -0.55548E-01   -0.29318E-02  2234   0.353E-01    0.105E+01
RMM: 107    -0.122536468894E+04    0.76511E-02   -0.21341E-02  2279   0.312E-01    0.986E+00
RMM: 108    -0.122536456971E+04    0.11922E-03   -0.14177E-02  2260   0.251E-01    0.929E+00
RMM: 109    -0.122539027370E+04   -0.25704E-01   -0.19037E-02  2317   0.251E-01    0.910E+00
RMM: 110    -0.122539561097E+04   -0.53373E-02   -0.37683E-02  2248   0.363E-01    0.991E+00
RMM: 111    -0.122582313382E+04   -0.42752E+00   -0.25049E-01  2203   0.982E-01    0.138E+01
RMM: 112    -0.122592559500E+04   -0.10246E+00   -0.93558E-02  2190   0.692E-01    0.147E+01
RMM: 113    -0.122578429443E+04    0.14130E+00   -0.57822E-02  2362   0.471E-01    0.127E+01
RMM: 114    -0.122577408110E+04    0.10213E-01   -0.82969E-02  2206   0.593E-01    0.124E+01
RMM: 115    -0.122583096961E+04   -0.56889E-01   -0.60599E-02  2268   0.524E-01    0.136E+01
RMM: 116    -0.122583178569E+04   -0.81608E-03   -0.38226E-02  2302   0.404E-01    0.161E+01
RMM: 117    -0.122583581328E+04   -0.40276E-02   -0.14924E-02  2129   0.263E-01    0.151E+01
RMM: 118    -0.122583289309E+04    0.29202E-02   -0.36001E-03  2464   0.104E-01    0.151E+01
RMM: 119    -0.122584725294E+04   -0.14360E-01   -0.29575E-03  2171   0.110E-01    0.161E+01
RMM: 120    -0.122581715463E+04    0.30098E-01   -0.20676E-03  2115   0.955E-02
   1 F= -.12339579E+04 E0= -.12339372E+04  d E =-.123396E+04  mag=    42.3369
 curvature:   0.00 expect dE= 0.000E+00 dE for cont linesearch  0.000E+00
 trial: gam= 0.00000 g(F)=  0.199E+00 g(S)=  0.154E+00 ort = 0.000E+00 (trialstep = 0.100E+01)
 search vector abs. value=  0.353E+00
 bond charge predicted
       N       E                     dE             d eps       ncg     rms          rms(c)
DAV:   1    -0.122613223246E+04   -0.28498E+00   -0.88278E+01  2220   0.213E+01    0.172E+01
RMM:   2    -0.126209209529E+04   -0.35960E+02   -0.18547E+01  2150   0.971E+00    0.819E+01
RMM:   3    -0.123115627899E+04    0.30936E+02   -0.16507E+01  2157   0.869E+00    0.495E+01
RMM:   4    -0.122573468552E+04    0.54216E+01   -0.32933E+00  2295   0.391E+00    0.155E+01
RMM:   5    -0.122778395996E+04   -0.20493E+01   -0.24082E+00  2317   0.284E+00    0.370E+01
RMM:   6    -0.122585203442E+04    0.19319E+01   -0.12322E+00  2285   0.233E+00    0.177E+01
RMM:   7    -0.122624800370E+04   -0.39597E+00   -0.11747E+00  2227   0.229E+00    0.184E+01
RMM:   8    -0.122600148564E+04    0.24652E+00   -0.39065E-01  2309   0.131E+00    0.165E+01
RMM:   9    -0.122570314132E+04    0.29834E+00   -0.21927E-01  2313   0.984E-01    0.115E+01
RMM:  10    -0.122569198618E+04    0.11155E-01   -0.58992E-02  2315   0.504E-01    0.107E+01
RMM:  11    -0.122570516504E+04   -0.13179E-01   -0.99830E-03  2651   0.146E-01    0.107E+01
RMM:  12    -0.122573275889E+04   -0.27594E-01   -0.11423E-01  2228   0.630E-01    0.120E+01
RMM:  13    -0.122565015895E+04    0.82600E-01   -0.20301E-01  2287   0.837E-01    0.106E+01
RMM:  14    -0.122548200276E+04    0.16816E+00   -0.24156E-01  2249   0.990E-01    0.896E+00
RMM:  15    -0.122537057933E+04    0.11142E+00   -0.13110E-01  2312   0.701E-01    0.548E+00
RMM:  16    -0.122542309528E+04   -0.52516E-01   -0.10076E-01  2290   0.631E-01    0.664E+00
RMM:  17    -0.122541048116E+04    0.12614E-01   -0.68053E-02  2363   0.506E-01    0.541E+00
RMM:  18    -0.122545409838E+04   -0.43617E-01   -0.45677E-02  2270   0.415E-01    0.706E+00
RMM:  19    -0.122549349429E+04   -0.39396E-01   -0.40866E-02  2230   0.401E-01    0.345E+00
RMM:  20    -0.122568252549E+04   -0.18903E+00   -0.53755E-02  2200   0.455E-01    0.409E+00
RMM:  21    -0.122575487405E+04   -0.72349E-01   -0.32317E-02  2263   0.365E-01    0.244E+00
RMM:  22    -0.122592316074E+04   -0.16829E+00   -0.29387E-02  2211   0.308E-01    0.259E+00
RMM:  23    -0.122599977249E+04   -0.76612E-01   -0.19665E-02  2324   0.260E-01    0.172E+00
RMM:  24    -0.122613157093E+04   -0.13180E+00   -0.14538E-02  2314   0.207E-01    0.143E+00
RMM:  25    -0.122623348104E+04   -0.10191E+00   -0.10220E-02  2406   0.171E-01    0.118E+00
RMM:  26    -0.122640789296E+04   -0.17441E+00   -0.10869E-02  2246   0.152E-01    0.112E+00
RMM:  27    -0.122651335479E+04   -0.10546E+00   -0.79590E-03  2433   0.148E-01    0.816E-01
RMM:  28    -0.122664995073E+04   -0.13660E+00   -0.73452E-03  2322   0.116E-01    0.562E-01
RMM:  29    -0.122681636837E+04   -0.16642E+00   -0.81584E-03  2432   0.103E-01    0.576E-01
RMM:  30    -0.122694131879E+04   -0.12495E+00   -0.54142E-03  2475   0.967E-02    0.617E-01
RMM:  31    -0.122703427213E+04   -0.92953E-01   -0.34949E-03  2475   0.772E-02    0.291E-01
RMM:  32    -0.122716288846E+04   -0.12862E+00   -0.43027E-03  2303   0.665E-02    0.251E-01
RMM:  33    -0.122728186309E+04   -0.11897E+00   -0.40426E-03  2509   0.685E-02    0.326E-01
RMM:  34    -0.122733501404E+04   -0.53151E-01   -0.17472E-03  2507   0.502E-02    0.238E-01
RMM:  35    -0.122741092120E+04   -0.75907E-01   -0.27916E-03  2285   0.499E-02    0.160E-01
RMM:  36    -0.122744332638E+04   -0.32405E-01   -0.12733E-03  2511   0.373E-02    0.117E-01
RMM:  37    -0.122746398321E+04   -0.20657E-01   -0.92082E-04  2323   0.269E-02    0.959E-02
RMM:  38    -0.122747910710E+04   -0.15124E-01   -0.76518E-04  2407   0.279E-02    0.658E-02
RMM:  39    -0.122748411981E+04   -0.50127E-02   -0.30191E-04  2408   0.161E-02    0.472E-02
RMM:  40    -0.122748819834E+04   -0.40785E-02   -0.21121E-04  2277   0.132E-02    0.364E-02
RMM:  41    -0.122749084647E+04   -0.26481E-02   -0.15037E-04  2238   0.106E-02    0.251E-02
RMM:  42    -0.122749195905E+04   -0.11126E-02   -0.66014E-05  2059   0.758E-03    0.241E-02
RMM:  43    -0.122749239439E+04   -0.43534E-03   -0.26019E-05  1822   0.482E-03    0.140E-02
RMM:  44    -0.122749265975E+04   -0.26536E-03   -0.13272E-05  1711   0.383E-03    0.887E-03
RMM:  45    -0.122749278007E+04   -0.12032E-03   -0.72897E-06  1552   0.293E-03    0.496E-03
RMM:  46    -0.122749282914E+04   -0.49067E-04   -0.29989E-06  1420   0.222E-03    0.630E-03
RMM:  47    -0.122749285331E+04   -0.24168E-04   -0.16445E-06  1320   0.177E-03    0.324E-03
RMM:  48    -0.122749286332E+04   -0.10011E-04   -0.78184E-07  1223   0.138E-03    0.199E-03
RMM:  49    -0.122749287652E+04   -0.13208E-04   -0.60732E-07  1128   0.105E-03    0.166E-03
RMM:  50    -0.122749289282E+04   -0.16295E-04   -0.71306E-07  1141   0.104E-03    0.139E-03
RMM:  51    -0.122749290449E+04   -0.11669E-04   -0.64390E-07  1117   0.998E-04    0.124E-03
RMM:  52    -0.122749291352E+04   -0.90353E-05   -0.55245E-07  1054   0.963E-04    0.102E-03
RMM:  53    -0.122749292084E+04   -0.73201E-05   -0.53449E-07  1072   0.907E-04    0.783E-04
RMM:  54    -0.122749292667E+04   -0.58250E-05   -0.47827E-07  1040   0.861E-04    0.787E-04
RMM:  55    -0.122749293250E+04   -0.58313E-05   -0.52710E-07  1076   0.840E-04    0.428E-04
RMM:  56    -0.122749293569E+04   -0.31907E-05   -0.43184E-07  1052   0.837E-04    0.354E-04
RMM:  57    -0.122749293666E+04   -0.97142E-06   -0.28559E-07   915   0.694E-04
   2 F= -.12355689E+04 E0= -.12355571E+04  d E =-.161106E+01  mag=    47.0000
 trial-energy change:   -1.611061  1 .order    0.086586   -0.352652    0.525824
 step:   0.4014(harm=  0.4014)  dis= 0.00999  next Energy= -1234.028672 (dE=-0.708E-01)
 bond charge predicted
       N       E                     dE             d eps       ncg     rms          rms(c)
DAV:   1    -0.122775690750E+04   -0.26397E+00   -0.30366E+01  2232   0.124E+01    0.407E+00
RMM:   2    -0.122772508501E+04    0.31822E-01   -0.11475E+00  2124   0.254E+00    0.595E+00
RMM:   3    -0.122797746320E+04   -0.25238E+00   -0.44601E-01  2426   0.136E+00    0.878E+00
RMM:   4    -0.122769609030E+04    0.28137E+00   -0.21561E-01  2472   0.942E-01    0.413E+00
RMM:   5    -0.122768377248E+04    0.12318E-01   -0.96132E-02  2356   0.592E-01    0.309E+00
RMM:   6    -0.122768608490E+04   -0.23124E-02   -0.51361E-02  2407   0.441E-01    0.308E+00
RMM:   7    -0.122767015518E+04    0.15930E-01   -0.28018E-02  2375   0.339E-01    0.178E+00
RMM:   8    -0.122767457871E+04   -0.44235E-02   -0.16057E-02  2439   0.246E-01    0.175E+00
RMM:   9    -0.122767136846E+04    0.32103E-02   -0.11826E-02  2417   0.220E-01    0.166E+00
RMM:  10    -0.122766760753E+04    0.37609E-02   -0.46119E-03  2509   0.137E-01    0.894E-01
RMM:  11    -0.122766968529E+04   -0.20778E-02   -0.32907E-03  2334   0.129E-01    0.108E+00
RMM:  12    -0.122766777494E+04    0.19104E-02   -0.12879E-03  2440   0.776E-02    0.414E-01
RMM:  13    -0.122766850239E+04   -0.72746E-03   -0.88155E-04  2299   0.605E-02    0.509E-01
RMM:  14    -0.122766832150E+04    0.18089E-03   -0.32172E-04  2360   0.382E-02    0.194E-01
RMM:  15    -0.122766857840E+04   -0.25690E-03   -0.19799E-04  2166   0.327E-02    0.154E-01
RMM:  16    -0.122766860845E+04   -0.30044E-04   -0.91888E-05  2067   0.200E-02    0.923E-02
RMM:  17    -0.122766871460E+04   -0.10615E-03   -0.53457E-05  1968   0.153E-02    0.122E-01
RMM:  18    -0.122766884344E+04   -0.12884E-03   -0.39189E-05  1928   0.133E-02    0.973E-02
RMM:  19    -0.122766892370E+04   -0.80263E-04   -0.24133E-05  1769   0.102E-02    0.486E-02
RMM:  20    -0.122766898504E+04   -0.61343E-04   -0.11618E-05  1567   0.739E-03    0.306E-02
RMM:  21    -0.122766903069E+04   -0.45646E-04   -0.59169E-06  1483   0.515E-03    0.230E-02
RMM:  22    -0.122766910491E+04   -0.74227E-04   -0.47628E-06  1496   0.425E-03    0.201E-02
RMM:  23    -0.122766918104E+04   -0.76123E-04   -0.55610E-06  1531   0.455E-03    0.262E-02
RMM:  24    -0.122766925437E+04   -0.73335E-04   -0.41877E-06  1514   0.385E-03    0.105E-02
RMM:  25    -0.122766934403E+04   -0.89661E-04   -0.40292E-06  1559   0.274E-03    0.174E-02
RMM:  26    -0.122766938355E+04   -0.39513E-04   -0.18587E-06  1321   0.240E-03    0.137E-02
RMM:  27    -0.122766943726E+04   -0.53710E-04   -0.22772E-06  1389   0.231E-03    0.561E-03
RMM:  28    -0.122766951548E+04   -0.78228E-04   -0.37324E-06  1546   0.215E-03    0.393E-03
RMM:  29    -0.122766955405E+04   -0.38570E-04   -0.17854E-06  1312   0.192E-03    0.545E-03
RMM:  30    -0.122766957384E+04   -0.19784E-04   -0.13423E-06  1208   0.166E-03    0.312E-03
RMM:  31    -0.122766961165E+04   -0.37811E-04   -0.17986E-06  1283   0.158E-03    0.293E-03
RMM:  32    -0.122766965654E+04   -0.44894E-04   -0.30003E-06  1443   0.178E-03    0.187E-03
RMM:  33    -0.122766969020E+04   -0.33661E-04   -0.30944E-06  1489   0.178E-03    0.359E-03
RMM:  34    -0.122766970694E+04   -0.16733E-04   -0.20527E-06  1270   0.163E-03    0.189E-03
RMM:  35    -0.122766971613E+04   -0.91920E-05   -0.12474E-06  1172   0.138E-03    0.653E-04
RMM:  36    -0.122766972023E+04   -0.41067E-05   -0.74133E-07  1113   0.114E-03    0.648E-04
RMM:  37    -0.122766972227E+04   -0.20339E-05   -0.45788E-07  1019   0.907E-04    0.474E-04
RMM:  38    -0.122766972419E+04   -0.19245E-05   -0.30536E-07   969   0.751E-04    0.610E-04
RMM:  39    -0.122766972555E+04   -0.13579E-05   -0.19952E-07   930   0.631E-04    0.236E-04
RMM:  40    -0.122766972663E+04   -0.10752E-05   -0.13335E-07   892   0.530E-04    0.195E-04
RMM:  41    -0.122766972725E+04   -0.62508E-06   -0.85391E-08   813   0.454E-04
   3 F= -.12357843E+04 E0= -.12357723E+04  d E =-.182645E+01  mag=    47.0000
 curvature:  -0.20 expect dE=-0.687E-01 dE for cont linesearch -0.220E-01
 ZBRENT: interpolating
 opt :   0.2577  next Energy= -1235.798464 (dE=-0.184E+01)
 bond charge predicted
       N       E                     dE             d eps       ncg     rms          rms(c)
DAV:   1    -0.122768791170E+04   -0.18185E-01   -0.17556E+00  2280   0.301E+00    0.975E-01
RMM:   2    -0.122768542647E+04    0.24852E-02   -0.64321E-02  2133   0.607E-01    0.153E+00
RMM:   3    -0.122771640051E+04   -0.30974E-01   -0.24699E-02  2442   0.319E-01    0.459E+00
RMM:   4    -0.122767666412E+04    0.39736E-01   -0.19013E-02  2364   0.294E-01    0.823E-01
RMM:   5    -0.122768341569E+04   -0.67516E-02   -0.80597E-03  2298   0.197E-01    0.817E-01
RMM:   6    -0.122768304356E+04    0.37213E-03   -0.26422E-03  2417   0.115E-01    0.603E-01
RMM:   7    -0.122768275457E+04    0.28899E-03   -0.13083E-03  2346   0.735E-02    0.492E-01
RMM:   8    -0.122768294217E+04   -0.18761E-03   -0.86991E-04  2466   0.573E-02    0.432E-01
RMM:   9    -0.122768266924E+04    0.27293E-03   -0.62817E-04  2346   0.526E-02    0.312E-01
RMM:  10    -0.122768274815E+04   -0.78901E-04   -0.34117E-04  2375   0.375E-02    0.271E-01
RMM:  11    -0.122768262211E+04    0.12603E-03   -0.18627E-04  2273   0.295E-02    0.708E-02
RMM:  12    -0.122768269339E+04   -0.71277E-04   -0.64410E-05  2244   0.173E-02    0.840E-02
RMM:  13    -0.122768269660E+04   -0.32113E-05   -0.30649E-05  1841   0.117E-02    0.573E-02
RMM:  14    -0.122768270516E+04   -0.85534E-05   -0.10218E-05  1494   0.734E-03    0.237E-02
RMM:  15    -0.122768271523E+04   -0.10077E-04   -0.36344E-06  1422   0.458E-03    0.213E-02
RMM:  16    -0.122768272048E+04   -0.52472E-05   -0.23133E-06  1384   0.356E-03    0.178E-02
RMM:  17    -0.122768273178E+04   -0.11299E-04   -0.21858E-06  1381   0.331E-03    0.167E-02
RMM:  18    -0.122768274538E+04   -0.13601E-04   -0.20172E-06  1361   0.319E-03    0.146E-02
RMM:  19    -0.122768275551E+04   -0.10129E-04   -0.11566E-06  1285   0.248E-03    0.982E-03
RMM:  20    -0.122768276011E+04   -0.46013E-05   -0.77873E-07  1241   0.211E-03    0.828E-03
RMM:  21    -0.122768276599E+04   -0.58758E-05   -0.48588E-07  1216   0.156E-03    0.484E-03
RMM:  22    -0.122768277439E+04   -0.84046E-05   -0.42183E-07  1222   0.131E-03    0.601E-03
RMM:  23    -0.122768278041E+04   -0.60170E-05   -0.36316E-07  1173   0.124E-03    0.482E-03
RMM:  24    -0.122768278845E+04   -0.80376E-05   -0.29107E-07  1077   0.896E-04    0.211E-03
RMM:  25    -0.122768279655E+04   -0.81022E-05   -0.27495E-07  1123   0.783E-04    0.152E-03
RMM:  26    -0.122768280495E+04   -0.84042E-05   -0.30008E-07  1039   0.735E-04    0.108E-03
RMM:  27    -0.122768281112E+04   -0.61686E-05   -0.28718E-07  1069   0.799E-04    0.202E-03
RMM:  28    -0.122768281484E+04   -0.37142E-05   -0.24067E-07  1006   0.720E-04    0.852E-04
RMM:  29    -0.122768282019E+04   -0.53578E-05   -0.25678E-07   983   0.651E-04    0.761E-04
RMM:  30    -0.122768282340E+04   -0.32101E-05   -0.21021E-07   971   0.657E-04    0.102E-03
RMM:  31    -0.122768282632E+04   -0.29124E-05   -0.19196E-07   915   0.581E-04    0.577E-04
RMM:  32    -0.122768283028E+04   -0.39626E-05   -0.21381E-07   987   0.604E-04    0.365E-04
RMM:  33    -0.122768283364E+04   -0.33668E-05   -0.23256E-07  1041   0.611E-04    0.575E-04
RMM:  34    -0.122768283607E+04   -0.24224E-05   -0.21997E-07  1001   0.609E-04    0.358E-04
RMM:  35    -0.122768283745E+04   -0.13828E-05   -0.18038E-07   938   0.562E-04    0.241E-04
RMM:  36    -0.122768283811E+04   -0.65549E-06   -0.12728E-07   837   0.500E-04
   4 F= -.12358068E+04 E0= -.12357947E+04  d E =-.184889E+01  mag=    47.0000
 curvature:  -0.13 expect dE=-0.239E-01 dE for cont linesearch -0.503E-02
 ZBRENT: interpolating
 opt :   0.0982  next Energy= -1235.818469 (dE=-0.186E+01)
 bond charge predicted
       N       E                     dE             d eps       ncg     rms          rms(c)
DAV:   1    -0.122769026034E+04   -0.74229E-02   -0.21621E+00  2220   0.334E+00    0.108E+00
RMM:   2    -0.122768710267E+04    0.31577E-02   -0.79277E-02  2134   0.675E-01    0.167E+00
RMM:   3    -0.122772503174E+04   -0.37929E-01   -0.30501E-02  2437   0.356E-01    0.491E+00
RMM:   4    -0.122767737519E+04    0.47657E-01   -0.22733E-02  2388   0.319E-01    0.896E-01
RMM:   5    -0.122768481948E+04   -0.74443E-02   -0.95925E-03  2298   0.214E-01    0.900E-01
RMM:   6    -0.122768424102E+04    0.57846E-03   -0.31830E-03  2422   0.127E-01    0.658E-01
RMM:   7    -0.122768394851E+04    0.29250E-03   -0.16001E-03  2351   0.809E-02    0.538E-01
RMM:   8    -0.122768419310E+04   -0.24459E-03   -0.10785E-03  2471   0.634E-02    0.504E-01
RMM:   9    -0.122768379684E+04    0.39626E-03   -0.78765E-04  2366   0.588E-02    0.355E-01
RMM:  10    -0.122768387261E+04   -0.75765E-04   -0.39786E-04  2399   0.406E-02    0.275E-01
RMM:  11    -0.122768375988E+04    0.11273E-03   -0.22249E-04  2287   0.324E-02    0.945E-02
RMM:  12    -0.122768382867E+04   -0.68790E-04   -0.74077E-05  2305   0.186E-02    0.930E-02
RMM:  13    -0.122768383384E+04   -0.51699E-05   -0.35302E-05  1881   0.123E-02    0.591E-02
RMM:  14    -0.122768384764E+04   -0.13800E-04   -0.11811E-05  1519   0.782E-03    0.301E-02
RMM:  15    -0.122768385790E+04   -0.10260E-04   -0.45674E-06  1449   0.513E-03    0.251E-02
RMM:  16    -0.122768386372E+04   -0.58252E-05   -0.27139E-06  1398   0.383E-03    0.195E-02
RMM:  17    -0.122768387684E+04   -0.13114E-04   -0.24036E-06  1386   0.345E-03    0.186E-02
RMM:  18    -0.122768389347E+04   -0.16628E-04   -0.24505E-06  1395   0.342E-03    0.155E-02
RMM:  19    -0.122768390600E+04   -0.12538E-04   -0.14617E-06  1314   0.278E-03    0.108E-02
RMM:  20    -0.122768391143E+04   -0.54284E-05   -0.95432E-07  1262   0.231E-03    0.972E-03
RMM:  21    -0.122768391850E+04   -0.70695E-05   -0.59443E-07  1228   0.174E-03    0.597E-03
RMM:  22    -0.122768392758E+04   -0.90789E-05   -0.49272E-07  1222   0.144E-03    0.704E-03
RMM:  23    -0.122768393522E+04   -0.76423E-05   -0.43616E-07  1207   0.134E-03    0.578E-03
RMM:  24    -0.122768394416E+04   -0.89327E-05   -0.34249E-07  1119   0.102E-03    0.248E-03
RMM:  25    -0.122768395410E+04   -0.99462E-05   -0.34355E-07  1137   0.856E-04    0.203E-03
RMM:  26    -0.122768396162E+04   -0.75201E-05   -0.31549E-07  1062   0.898E-04    0.286E-03
RMM:  27    -0.122768396731E+04   -0.56921E-05   -0.28529E-07  1010   0.851E-04    0.137E-03
RMM:  28    -0.122768397600E+04   -0.86831E-05   -0.36036E-07  1113   0.762E-04    0.838E-04
RMM:  29    -0.122768398138E+04   -0.53799E-05   -0.28850E-07  1043   0.748E-04    0.605E-04
RMM:  30    -0.122768398762E+04   -0.62421E-05   -0.34496E-07   992   0.670E-04    0.478E-04
RMM:  31    -0.122768399331E+04   -0.56888E-05   -0.34058E-07  1058   0.768E-04    0.540E-04
RMM:  32    -0.122768399683E+04   -0.35237E-05   -0.31799E-07  1026   0.694E-04    0.929E-04
RMM:  33    -0.122768399883E+04   -0.19933E-05   -0.23971E-07   956   0.684E-04    0.717E-04
RMM:  34    -0.122768400152E+04   -0.26929E-05   -0.25728E-07   953   0.594E-04    0.300E-04
RMM:  35    -0.122768400298E+04   -0.14641E-05   -0.19196E-07   939   0.630E-04    0.311E-04
RMM:  36    -0.122768400372E+04   -0.73829E-06   -0.14295E-07   861   0.487E-04
   5 F= -.12358183E+04 E0= -.12358062E+04  d E =-.186044E+01  mag=    47.0000
 curvature:  -0.30 expect dE=-0.270E-01 dE for cont linesearch -0.708E-03
 ZBRENT: interpolating
 opt :   0.0573  next Energy= -1235.819041 (dE=-0.186E+01)
 bond charge predicted
       N       E                     dE             d eps       ncg     rms          rms(c)
DAV:   1    -0.122768242529E+04    0.15777E-02   -0.14248E-01  2256   0.858E-01    0.279E-01
RMM:   2    -0.122768213586E+04    0.28943E-03   -0.51973E-03  2134   0.173E-01    0.426E-01
RMM:   3    -0.122768520572E+04   -0.30699E-02   -0.19999E-03  2435   0.909E-02    0.171E+00
RMM:   4    -0.122768069379E+04    0.45119E-02   -0.19238E-03  2297   0.953E-02    0.255E-01
RMM:   5    -0.122768196127E+04   -0.12675E-02   -0.85050E-04  2246   0.669E-02    0.239E-01
RMM:   6    -0.122768201204E+04   -0.50767E-04   -0.23642E-04  2341   0.363E-02    0.193E-01
RMM:   7    -0.122768200105E+04    0.10994E-04   -0.11417E-04  2151   0.221E-02    0.184E-01
RMM:   8    -0.122768200040E+04    0.64260E-06   -0.73367E-05  2216   0.165E-02    0.111E-01
RMM:   9    -0.122768199887E+04    0.15315E-05   -0.49936E-05  1944   0.149E-02    0.758E-02
RMM:  10    -0.122768201479E+04   -0.15920E-04   -0.29657E-05  1824   0.114E-02    0.879E-02
RMM:  11    -0.122768199702E+04    0.17768E-04   -0.15658E-05  1545   0.891E-03    0.327E-02
RMM:  12    -0.122768200597E+04   -0.89422E-05   -0.58828E-06  1480   0.559E-03    0.236E-02
RMM:  13    -0.122768200789E+04   -0.19289E-05   -0.30789E-06  1395   0.437E-03    0.135E-02
RMM:  14    -0.122768200958E+04   -0.16844E-05   -0.10757E-06  1260   0.268E-03    0.840E-03
RMM:  15    -0.122768201061E+04   -0.10311E-05   -0.46792E-07  1186   0.183E-03    0.662E-03
RMM:  16    -0.122768201141E+04   -0.80184E-06   -0.27382E-07  1185   0.135E-03
   6 F= -.12358190E+04 E0= -.12358068E+04  d E =-.186111E+01  mag=    47.0000
 curvature:  -0.30 expect dE=-0.240E-01 dE for cont linesearch -0.317E-04
 trial: gam= 0.24142 g(F)=  0.681E-01 g(S)=  0.110E-01 ort =-0.607E-02 (trialstep = 0.811E+00)
 search vector abs. value=  0.967E-01
 bond charge predicted
       N       E                     dE             d eps       ncg     rms          rms(c)
DAV:   1    -0.122762295050E+04    0.59060E-01   -0.23084E+01  2064   0.789E+00    0.236E+00
RMM:   2    -0.122773691444E+04   -0.11396E+00   -0.40343E-01  2265   0.141E+00    0.508E+00
RMM:   3    -0.122781954356E+04   -0.82629E-01   -0.17103E-01  2511   0.781E-01    0.837E+00
RMM:   4    -0.122773821001E+04    0.81334E-01   -0.10511E-01  2402   0.642E-01    0.492E+00
RMM:   5    -0.122770389557E+04    0.34314E-01   -0.40021E-02  2331   0.406E-01    0.220E+00
RMM:   6    -0.122770901255E+04   -0.51170E-02   -0.15173E-02  2293   0.253E-01    0.142E+00
RMM:   7    -0.122770945350E+04   -0.44095E-03   -0.65452E-03  2412   0.175E-01    0.153E+00
RMM:   8    -0.122770982636E+04   -0.37286E-03   -0.28837E-03  2333   0.109E-01    0.143E+00
RMM:   9    -0.122770852646E+04    0.12999E-02   -0.17786E-03  2386   0.760E-02    0.110E+00
RMM:  10    -0.122770822124E+04    0.30522E-03   -0.17969E-03  2343   0.846E-02    0.598E-01
RMM:  11    -0.122770995341E+04   -0.17322E-02   -0.19126E-03  2310   0.992E-02    0.943E-01
RMM:  12    -0.122770862438E+04    0.13290E-02   -0.11995E-03  2336   0.754E-02    0.376E-01
RMM:  13    -0.122770906501E+04   -0.44063E-03   -0.60728E-04  2355   0.530E-02    0.267E-01
RMM:  14    -0.122770914892E+04   -0.83910E-04   -0.27371E-04  2209   0.383E-02    0.172E-01
RMM:  15    -0.122770919992E+04   -0.51000E-04   -0.11390E-04  2132   0.229E-02    0.156E-01
RMM:  16    -0.122770921126E+04   -0.11333E-04   -0.41882E-05  1931   0.140E-02    0.475E-02
RMM:  17    -0.122770926626E+04   -0.54998E-04   -0.27610E-05  1788   0.108E-02    0.831E-02
RMM:  18    -0.122770927842E+04   -0.12160E-04   -0.14416E-05  1579   0.868E-03    0.208E-02
RMM:  19    -0.122770930851E+04   -0.30096E-04   -0.47986E-06  1452   0.501E-03    0.293E-02
RMM:  20    -0.122770931751E+04   -0.89958E-05   -0.36769E-06  1418   0.425E-03    0.240E-02
RMM:  21    -0.122770932700E+04   -0.94906E-05   -0.20145E-06  1379   0.324E-03    0.107E-02
RMM:  22    -0.122770934450E+04   -0.17505E-04   -0.13869E-06  1308   0.253E-03    0.975E-03
RMM:  23    -0.122770935911E+04   -0.14607E-04   -0.14334E-06  1330   0.261E-03    0.131E-02
RMM:  24    -0.122770936670E+04   -0.75909E-05   -0.87538E-07  1238   0.217E-03    0.774E-03
RMM:  25    -0.122770937518E+04   -0.84810E-05   -0.46673E-07  1200   0.135E-03    0.470E-03
RMM:  26    -0.122770938164E+04   -0.64586E-05   -0.39453E-07  1147   0.129E-03    0.540E-03
RMM:  27    -0.122770938993E+04   -0.82850E-05   -0.34726E-07  1150   0.113E-03    0.502E-03
RMM:  28    -0.122770940106E+04   -0.11138E-04   -0.32813E-07  1125   0.881E-04    0.178E-03
RMM:  29    -0.122770940940E+04   -0.83334E-05   -0.28029E-07  1057   0.794E-04    0.130E-03
RMM:  30    -0.122770941576E+04   -0.63592E-05   -0.23528E-07   987   0.667E-04    0.856E-04
RMM:  31    -0.122770942233E+04   -0.65764E-05   -0.23841E-07  1025   0.655E-04    0.114E-03
RMM:  32    -0.122770942530E+04   -0.29678E-05   -0.17448E-07   921   0.628E-04    0.114E-03
RMM:  33    -0.122770943045E+04   -0.51532E-05   -0.19739E-07   948   0.558E-04    0.587E-04
RMM:  34    -0.122770943388E+04   -0.34243E-05   -0.15821E-07   927   0.572E-04    0.436E-04
RMM:  35    -0.122770943658E+04   -0.27031E-05   -0.14405E-07   864   0.481E-04    0.398E-04
RMM:  36    -0.122770943961E+04   -0.30290E-05   -0.14223E-07   922   0.518E-04    0.315E-04
RMM:  37    -0.122770944180E+04   -0.21915E-05   -0.14380E-07   935   0.490E-04    0.163E-04
RMM:  38    -0.122770944303E+04   -0.12286E-05   -0.11459E-07   898   0.487E-04    0.131E-04
RMM:  39    -0.122770944384E+04   -0.80560E-06   -0.94824E-08   792   0.422E-04
   7 F= -.12358454E+04 E0= -.12358337E+04  d E =-.263915E-01  mag=    47.0000
 trial-energy change:   -0.026392  1 .order   -0.026283   -0.062973    0.010406
 step:   0.6973(harm=  0.6964)  dis= 0.01541  next Energy= -1235.846123 (dE=-0.271E-01)
 bond charge predicted
       N       E                     dE             d eps       ncg     rms          rms(c)
DAV:   1    -0.122770844868E+04    0.99435E-03   -0.45785E-01  2220   0.111E+00    0.328E-01
RMM:   2    -0.122771042299E+04   -0.19743E-02   -0.66913E-03  2272   0.186E-01    0.101E+00
RMM:   3    -0.122771137442E+04   -0.95143E-03   -0.29548E-03  2512   0.106E-01    0.139E+00
RMM:   4    -0.122770950664E+04    0.18678E-02   -0.22802E-03  2319   0.105E-01    0.390E-01
RMM:   5    -0.122770972937E+04   -0.22273E-03   -0.58506E-04  2220   0.542E-02    0.122E-01
RMM:   6    -0.122771001766E+04   -0.28829E-03   -0.20844E-04  2292   0.292E-02    0.190E-01
RMM:   7    -0.122770998287E+04    0.34790E-04   -0.11719E-04  2324   0.230E-02    0.120E-01
RMM:   8    -0.122771000329E+04   -0.20423E-04   -0.71018E-05  2025   0.168E-02    0.116E-01
RMM:   9    -0.122771001680E+04   -0.13510E-04   -0.42463E-05  1920   0.134E-02    0.759E-02
RMM:  10    -0.122771002087E+04   -0.40753E-05   -0.24366E-05  1665   0.106E-02    0.510E-02
RMM:  11    -0.122771002502E+04   -0.41422E-05   -0.10492E-05  1508   0.731E-03    0.359E-02
RMM:  12    -0.122771002834E+04   -0.33281E-05   -0.42862E-06  1440   0.499E-03    0.148E-02
RMM:  13    -0.122771003466E+04   -0.63189E-05   -0.21901E-06  1391   0.341E-03    0.169E-02
RMM:  14    -0.122771003573E+04   -0.10634E-05   -0.14429E-06  1339   0.290E-03    0.115E-02
RMM:  15    -0.122771003636E+04   -0.62916E-06   -0.47256E-07  1196   0.172E-03
   8 F= -.12358461E+04 E0= -.12358344E+04  d E =-.271170E-01  mag=    47.0000
 curvature:  -0.43 expect dE=-0.482E-01 dE for cont linesearch -0.544E-08
 trial: gam= 1.31779 g(F)=  0.106E+00 g(S)=  0.474E-02 ort = 0.348E-04 (trialstep = 0.273E+00)
 search vector abs. value=  0.279E+00
 bond charge predicted
       N       E                     dE             d eps       ncg     rms          rms(c)
DAV:   1    -0.122770335301E+04    0.66827E-02   -0.76195E+00  2064   0.418E+00    0.140E+00
RMM:   2    -0.122773583361E+04   -0.32481E-01   -0.10650E-01  2279   0.710E-01    0.329E+00
RMM:   3    -0.122777181444E+04   -0.35981E-01   -0.52919E-02  2470   0.437E-01    0.547E+00
RMM:   4    -0.122773014674E+04    0.41668E-01   -0.39207E-02  2336   0.409E-01    0.209E+00
RMM:   5    -0.122772649518E+04    0.36516E-02   -0.12660E-02  2301   0.241E-01    0.634E-01
RMM:   6    -0.122772957082E+04   -0.30756E-02   -0.42351E-03  2363   0.132E-01    0.713E-01
RMM:   7    -0.122772906779E+04    0.50302E-03   -0.21318E-03  2374   0.973E-02    0.446E-01
RMM:   8    -0.122772937104E+04   -0.30324E-03   -0.10682E-03  2400   0.679E-02    0.462E-01
RMM:   9    -0.122772921455E+04    0.15649E-03   -0.69549E-04  2332   0.504E-02    0.328E-01
RMM:  10    -0.122772937524E+04   -0.16069E-03   -0.43861E-04  2294   0.422E-02    0.310E-01
RMM:  11    -0.122772931256E+04    0.62689E-04   -0.24997E-04  2204   0.334E-02    0.249E-01
RMM:  12    -0.122772931552E+04   -0.29690E-05   -0.81133E-05  2113   0.193E-02    0.953E-02
RMM:  13    -0.122772939116E+04   -0.75632E-04   -0.57631E-05  1930   0.161E-02    0.815E-02
RMM:  14    -0.122772942402E+04   -0.32866E-04   -0.27467E-05  1733   0.117E-02    0.705E-02
RMM:  15    -0.122772942889E+04   -0.48689E-05   -0.12843E-05  1533   0.807E-03    0.308E-02
RMM:  16    -0.122772945356E+04   -0.24665E-04   -0.48670E-06  1463   0.481E-03    0.317E-02
RMM:  17    -0.122772946759E+04   -0.14033E-04   -0.46333E-06  1449   0.480E-03    0.383E-02
RMM:  18    -0.122772947832E+04   -0.10732E-04   -0.28874E-06  1399   0.396E-03    0.197E-02
RMM:  19    -0.122772948975E+04   -0.11429E-04   -0.10400E-06  1260   0.235E-03    0.870E-03
RMM:  20    -0.122772949548E+04   -0.57291E-05   -0.98456E-07  1277   0.223E-03    0.106E-02
RMM:  21    -0.122772950180E+04   -0.63251E-05   -0.62307E-07  1228   0.182E-03    0.442E-03
RMM:  22    -0.122772951558E+04   -0.13781E-04   -0.50597E-07  1214   0.115E-03    0.384E-03
RMM:  23    -0.122772952306E+04   -0.74787E-05   -0.37850E-07  1131   0.120E-03    0.460E-03
RMM:  24    -0.122772952741E+04   -0.43505E-05   -0.29437E-07  1052   0.102E-03    0.309E-03
RMM:  25    -0.122772953326E+04   -0.58416E-05   -0.22178E-07  1033   0.761E-04    0.193E-03
RMM:  26    -0.122772953984E+04   -0.65846E-05   -0.21580E-07  1008   0.670E-04    0.143E-03
RMM:  27    -0.122772954419E+04   -0.43456E-05   -0.18665E-07   957   0.702E-04    0.198E-03
RMM:  28    -0.122772954921E+04   -0.50266E-05   -0.18750E-07   951   0.622E-04    0.990E-04
RMM:  29    -0.122772955397E+04   -0.47580E-05   -0.17348E-07   982   0.590E-04    0.536E-04
RMM:  30    -0.122772955706E+04   -0.30910E-05   -0.14462E-07   901   0.532E-04    0.711E-04
RMM:  31    -0.122772955954E+04   -0.24822E-05   -0.12151E-07   877   0.514E-04    0.628E-04
RMM:  32    -0.122772956406E+04   -0.45129E-05   -0.16399E-07   973   0.511E-04    0.362E-04
RMM:  33    -0.122772956760E+04   -0.35463E-05   -0.15638E-07   963   0.553E-04    0.280E-04
RMM:  34    -0.122772956988E+04   -0.22801E-05   -0.14753E-07   912   0.500E-04    0.191E-04
RMM:  35    -0.122772957206E+04   -0.21758E-05   -0.14268E-07   927   0.517E-04    0.190E-04
RMM:  36    -0.122772957331E+04   -0.12531E-05   -0.12160E-07   882   0.482E-04    0.135E-04
RMM:  37    -0.122772957405E+04   -0.73562E-06   -0.95883E-08   819   0.451E-04
   9 F= -.12358676E+04 E0= -.12358561E+04  d E =-.214634E-01  mag=    47.0000
 trial-energy change:   -0.021463  1 .order   -0.021486   -0.030358   -0.012614
 step:   0.4675(harm=  0.4675)  dis= 0.02004  next Energy= -1235.872085 (dE=-0.260E-01)
 bond charge predicted
       N       E                     dE             d eps       ncg     rms          rms(c)
DAV:   1    -0.122771956480E+04    0.10009E-01   -0.38520E+00  2136   0.298E+00    0.100E+00
RMM:   2    -0.122773700586E+04   -0.17441E-01   -0.52298E-02  2271   0.503E-01    0.261E+00
RMM:   3    -0.122775057572E+04   -0.13570E-01   -0.26253E-02  2470   0.313E-01    0.399E+00
RMM:   4    -0.122773100443E+04    0.19571E-01   -0.20143E-02  2337   0.303E-01    0.133E+00
RMM:   5    -0.122773078750E+04    0.21693E-03   -0.61207E-03  2286   0.172E-01    0.395E-01
RMM:   6    -0.122773269495E+04   -0.19075E-02   -0.20369E-03  2388   0.918E-02    0.561E-01
RMM:   7    -0.122773227814E+04    0.41681E-03   -0.11544E-03  2361   0.713E-02    0.283E-01
RMM:   8    -0.122773246003E+04   -0.18189E-03   -0.59043E-04  2396   0.495E-02    0.281E-01
RMM:   9    -0.122773240779E+04    0.52248E-04   -0.34839E-04  2274   0.365E-02    0.196E-01
RMM:  10    -0.122773248038E+04   -0.72593E-04   -0.20559E-04  2264   0.293E-02    0.167E-01
RMM:  11    -0.122773244540E+04    0.34975E-04   -0.97500E-05  2071   0.206E-02    0.607E-02
RMM:  12    -0.122773249794E+04   -0.52533E-04   -0.36252E-05  1864   0.127E-02    0.484E-02
RMM:  13    -0.122773251478E+04   -0.16846E-04   -0.17906E-05  1573   0.911E-03    0.372E-02
RMM:  14    -0.122773252599E+04   -0.11204E-04   -0.87815E-06  1481   0.649E-03    0.316E-02
RMM:  15    -0.122773253206E+04   -0.60700E-05   -0.42631E-06  1440   0.477E-03    0.139E-02
RMM:  16    -0.122773254259E+04   -0.10537E-04   -0.17666E-06  1371   0.292E-03    0.115E-02
RMM:  17    -0.122773255163E+04   -0.90362E-05   -0.18627E-06  1359   0.297E-03    0.164E-02
RMM:  18    -0.122773255647E+04   -0.48435E-05   -0.11661E-06  1300   0.255E-03    0.644E-03
RMM:  19    -0.122773256264E+04   -0.61650E-05   -0.44356E-07  1225   0.139E-03    0.407E-03
RMM:  20    -0.122773256734E+04   -0.47009E-05   -0.39237E-07  1192   0.131E-03    0.663E-03
RMM:  21    -0.122773257142E+04   -0.40828E-05   -0.33381E-07  1106   0.126E-03    0.252E-03
RMM:  22    -0.122773257739E+04   -0.59625E-05   -0.22937E-07  1095   0.769E-04    0.158E-03
RMM:  23    -0.122773258134E+04   -0.39527E-05   -0.17649E-07   997   0.735E-04    0.214E-03
RMM:  24    -0.122773258348E+04   -0.21445E-05   -0.13403E-07   895   0.651E-04    0.142E-03
RMM:  25    -0.122773258743E+04   -0.39501E-05   -0.13089E-07   943   0.558E-04    0.750E-04
RMM:  26    -0.122773259133E+04   -0.38929E-05   -0.13034E-07   940   0.530E-04    0.835E-04
RMM:  27    -0.122773259312E+04   -0.17896E-05   -0.99285E-08   879   0.514E-04    0.908E-04
RMM:  28    -0.122773259507E+04   -0.19585E-05   -0.83521E-08   800   0.443E-04    0.444E-04
RMM:  29    -0.122773259745E+04   -0.23713E-05   -0.83426E-08   838   0.435E-04    0.274E-04
RMM:  30    -0.122773260004E+04   -0.25961E-05   -0.95385E-08   905   0.438E-04    0.371E-04
RMM:  31    -0.122773260167E+04   -0.16331E-05   -0.80707E-08   863   0.445E-04    0.520E-04
RMM:  32    -0.122773260285E+04   -0.11804E-05   -0.66373E-08   785   0.402E-04    0.221E-04
RMM:  33    -0.122773260440E+04   -0.15424E-05   -0.71482E-08   828   0.402E-04    0.164E-04
RMM:  34    -0.122773260564E+04   -0.12420E-05   -0.71949E-08   847   0.404E-04    0.116E-04
RMM:  35    -0.122773260648E+04   -0.84415E-06   -0.64658E-08   800   0.397E-04
  10 F= -.12358720E+04 E0= -.12358607E+04  d E =-.259099E-01  mag=    47.0000
 curvature:  -0.59 expect dE=-0.296E-01 dE for cont linesearch -0.108E-06
 trial: gam= 0.46516 g(F)=  0.501E-01 g(S)=  0.238E-03 ort =-0.227E-03 (trialstep = 0.312E+00)
 search vector abs. value=  0.111E+00
 bond charge predicted
       N       E                     dE             d eps       ncg     rms          rms(c)
DAV:   1    -0.122772461466E+04    0.79910E-02   -0.34639E+00  2124   0.315E+00    0.923E-01
RMM:   2    -0.122773930274E+04   -0.14688E-01   -0.62804E-02  2394   0.526E-01    0.230E+00
RMM:   3    -0.122774852432E+04   -0.92216E-02   -0.20924E-02  2490   0.293E-01    0.344E+00
RMM:   4    -0.122773434530E+04    0.14179E-01   -0.14997E-02  2373   0.264E-01    0.119E+00
RMM:   5    -0.122773446531E+04   -0.12000E-03   -0.47992E-03  2302   0.151E-01    0.483E-01
RMM:   6    -0.122773650091E+04   -0.20356E-02   -0.26725E-03  2348   0.103E-01    0.758E-01
RMM:   7    -0.122773540068E+04    0.11002E-02   -0.21209E-03  2375   0.969E-02    0.410E-01
RMM:   8    -0.122773586938E+04   -0.46870E-03   -0.14720E-03  2325   0.770E-02    0.510E-01
RMM:   9    -0.122773541680E+04    0.45258E-03   -0.84484E-04  2265   0.578E-02    0.264E-01
RMM:  10    -0.122773544700E+04   -0.30205E-04   -0.32768E-04  2230   0.386E-02    0.181E-01
RMM:  11    -0.122773537882E+04    0.68183E-04   -0.10829E-04  2055   0.219E-02    0.538E-02
RMM:  12    -0.122773542439E+04   -0.45570E-04   -0.25548E-05  1885   0.107E-02    0.391E-02
RMM:  13    -0.122773544302E+04   -0.18634E-04   -0.14937E-05  1574   0.822E-03    0.421E-02
RMM:  14    -0.122773545325E+04   -0.10229E-04   -0.80462E-06  1489   0.647E-03    0.228E-02
RMM:  15    -0.122773546631E+04   -0.13056E-04   -0.40381E-06  1437   0.447E-03    0.157E-02
RMM:  16    -0.122773547972E+04   -0.13410E-04   -0.22536E-06  1370   0.337E-03    0.121E-02
RMM:  17    -0.122773549328E+04   -0.13557E-04   -0.16996E-06  1351   0.283E-03    0.132E-02
RMM:  18    -0.122773549853E+04   -0.52591E-05   -0.11248E-06  1282   0.248E-03    0.784E-03
RMM:  19    -0.122773550805E+04   -0.95116E-05   -0.63368E-07  1224   0.164E-03    0.478E-03
RMM:  20    -0.122773551865E+04   -0.10608E-04   -0.56093E-07  1207   0.139E-03    0.599E-03
RMM:  21    -0.122773552362E+04   -0.49610E-05   -0.46940E-07  1135   0.143E-03    0.353E-03
RMM:  22    -0.122773553219E+04   -0.85778E-05   -0.38588E-07  1142   0.978E-04    0.171E-03
RMM:  23    -0.122773553909E+04   -0.68933E-05   -0.31372E-07  1069   0.849E-04    0.168E-03
RMM:  24    -0.122773554327E+04   -0.41845E-05   -0.25109E-07  1018   0.805E-04    0.230E-03
RMM:  25    -0.122773554773E+04   -0.44635E-05   -0.21860E-07   960   0.738E-04    0.967E-04
RMM:  26    -0.122773555399E+04   -0.62515E-05   -0.25842E-07  1046   0.649E-04    0.723E-04
RMM:  27    -0.122773555773E+04   -0.37394E-05   -0.20524E-07   990   0.639E-04    0.719E-04
RMM:  28    -0.122773556009E+04   -0.23619E-05   -0.15987E-07   915   0.549E-04    0.946E-04
RMM:  29    -0.122773556302E+04   -0.29352E-05   -0.14771E-07   918   0.548E-04    0.406E-04
RMM:  30    -0.122773556712E+04   -0.40926E-05   -0.20447E-07   975   0.540E-04    0.489E-04
RMM:  31    -0.122773556852E+04   -0.14097E-05   -0.13291E-07   903   0.561E-04    0.637E-04
RMM:  32    -0.122773556974E+04   -0.12146E-05   -0.10934E-07   818   0.438E-04    0.272E-04
RMM:  33    -0.122773557102E+04   -0.12842E-05   -0.91970E-08   848   0.461E-04    0.173E-04
RMM:  34    -0.122773557210E+04   -0.10770E-05   -0.86293E-08   793   0.406E-04    0.132E-04
RMM:  35    -0.122773557277E+04   -0.66750E-06   -0.69222E-08   797   0.419E-04
  11 F= -.12358761E+04 E0= -.12358649E+04  d E =-.402723E-02  mag=    47.0000
 trial-energy change:   -0.004027  1 .order   -0.004075   -0.015692    0.007542
 step:   0.2099(harm=  0.2108)  dis= 0.00500  next Energy= -1235.877290 (dE=-0.526E-02)
 bond charge predicted
       N       E                     dE             d eps       ncg     rms          rms(c)
DAV:   1    -0.122773600353E+04   -0.43143E-03   -0.37132E-01  2220   0.103E+00    0.304E-01
RMM:   2    -0.122773730286E+04   -0.12993E-02   -0.65067E-03  2386   0.170E-01    0.741E-01
RMM:   3    -0.122773863604E+04   -0.13332E-02   -0.22244E-03  2482   0.954E-02    0.126E+00
RMM:   4    -0.122773664419E+04    0.19919E-02   -0.16977E-03  2342   0.905E-02    0.363E-01
RMM:   5    -0.122773696523E+04   -0.32104E-03   -0.53004E-04  2217   0.518E-02    0.167E-01
RMM:   6    -0.122773727173E+04   -0.30650E-03   -0.31779E-04  2301   0.356E-02    0.280E-01
RMM:   7    -0.122773710006E+04    0.17167E-03   -0.22526E-04  2346   0.323E-02    0.131E-01
RMM:   8    -0.122773717477E+04   -0.74712E-04   -0.14645E-04  2146   0.245E-02    0.163E-01
RMM:   9    -0.122773713725E+04    0.37523E-04   -0.77496E-05  1966   0.178E-02    0.854E-02
RMM:  10    -0.122773714144E+04   -0.41922E-05   -0.30854E-05  1726   0.121E-02    0.501E-02
RMM:  11    -0.122773714104E+04    0.39509E-06   -0.96105E-06  1497   0.697E-03
  12 F= -.12358773E+04 E0= -.12358661E+04  d E =-.524585E-02  mag=    47.0000
 curvature:  -0.23 expect dE=-0.128E-01 dE for cont linesearch -0.159E-06
 trial: gam= 1.08637 g(F)=  0.549E-01 g(S)=  0.265E-03 ort = 0.275E-03 (trialstep = 0.173E+00)
 search vector abs. value=  0.186E+00
 bond charge predicted
       N       E                     dE             d eps       ncg     rms          rms(c)
DAV:   1    -0.122773801980E+04   -0.87836E-03   -0.16355E+00  2112   0.238E+00    0.579E-01
RMM:   2    -0.122774386719E+04   -0.58474E-02   -0.29114E-02  2473   0.387E-01    0.134E+00
RMM:   3    -0.122775046944E+04   -0.66022E-02   -0.92768E-03  2499   0.198E-01    0.256E+00
RMM:   4    -0.122774191609E+04    0.85533E-02   -0.71835E-03  2387   0.183E-01    0.838E-01
RMM:   5    -0.122774243928E+04   -0.52319E-03   -0.22644E-03  2301   0.106E-01    0.265E-01
RMM:   6    -0.122774324239E+04   -0.80311E-03   -0.79543E-04  2413   0.573E-02    0.346E-01
RMM:   7    -0.122774310283E+04    0.13956E-03   -0.46770E-04  2421   0.459E-02    0.188E-01
RMM:   8    -0.122774327582E+04   -0.17299E-03   -0.34284E-04  2344   0.364E-02    0.267E-01
RMM:   9    -0.122774316950E+04    0.10632E-03   -0.23532E-04  2260   0.305E-02    0.138E-01
RMM:  10    -0.122774319897E+04   -0.29473E-04   -0.10405E-04  2108   0.220E-02    0.106E-01
RMM:  11    -0.122774318034E+04    0.18630E-04   -0.39791E-05  1798   0.133E-02    0.441E-02
RMM:  12    -0.122774320089E+04   -0.20546E-04   -0.10293E-05  1529   0.709E-03    0.283E-02
RMM:  13    -0.122774320921E+04   -0.83209E-05   -0.63269E-06  1478   0.576E-03    0.252E-02
RMM:  14    -0.122774321367E+04   -0.44640E-05   -0.30700E-06  1402   0.410E-03    0.128E-02
RMM:  15    -0.122774321847E+04   -0.48015E-05   -0.13625E-06  1300   0.278E-03    0.907E-03
RMM:  16    -0.122774322308E+04   -0.46106E-05   -0.82298E-07  1244   0.216E-03    0.674E-03
RMM:  17    -0.122774322775E+04   -0.46698E-05   -0.63875E-07  1228   0.180E-03    0.836E-03
RMM:  18    -0.122774322970E+04   -0.19459E-05   -0.46887E-07  1199   0.162E-03    0.449E-03
RMM:  19    -0.122774323285E+04   -0.31480E-05   -0.23747E-07  1146   0.101E-03    0.340E-03
RMM:  20    -0.122774323582E+04   -0.29666E-05   -0.18525E-07  1075   0.848E-04    0.359E-03
RMM:  21    -0.122774323752E+04   -0.17072E-05   -0.15439E-07  1031   0.838E-04    0.180E-03
RMM:  22    -0.122774324022E+04   -0.26953E-05   -0.10854E-07   941   0.570E-04    0.101E-03
RMM:  23    -0.122774324200E+04   -0.17819E-05   -0.81372E-08   887   0.493E-04    0.699E-04
RMM:  24    -0.122774324346E+04   -0.14568E-05   -0.69212E-08   832   0.439E-04    0.902E-04
RMM:  25    -0.122774324427E+04   -0.81823E-06   -0.52986E-08   784   0.439E-04
  13 F= -.12358840E+04 E0= -.12358729E+04  d E =-.671795E-02  mag=    47.0000
 trial-energy change:   -0.006718  1 .order   -0.006735   -0.009598   -0.003871
 step:   0.2938(harm=  0.2903)  dis= 0.00822  next Energy= -1235.885333 (dE=-0.806E-02)
 bond charge predicted
       N       E                     dE             d eps       ncg     rms          rms(c)
DAV:   1    -0.122774159682E+04    0.16466E-02   -0.79373E-01  2100   0.166E+00    0.404E-01
RMM:   2    -0.122774452962E+04   -0.29328E-02   -0.14141E-02  2475   0.270E-01    0.102E+00
RMM:   3    -0.122774694276E+04   -0.24131E-02   -0.44628E-03  2498   0.138E-01    0.171E+00
RMM:   4    -0.122774349456E+04    0.34482E-02   -0.34196E-03  2379   0.128E-01    0.590E-01
RMM:   5    -0.122774368647E+04   -0.19191E-03   -0.10649E-03  2285   0.727E-02    0.182E-01
RMM:   6    -0.122774410653E+04   -0.42006E-03   -0.38821E-04  2392   0.399E-02    0.249E-01
RMM:   7    -0.122774402803E+04    0.78502E-04   -0.22710E-04  2399   0.321E-02    0.126E-01
RMM:   8    -0.122774412775E+04   -0.99722E-04   -0.16683E-04  2266   0.254E-02    0.187E-01
RMM:   9    -0.122774407399E+04    0.53753E-04   -0.11096E-04  2124   0.210E-02    0.940E-02
RMM:  10    -0.122774409336E+04   -0.19365E-04   -0.49900E-05  1882   0.151E-02    0.736E-02
RMM:  11    -0.122774408582E+04    0.75372E-05   -0.18168E-05  1556   0.916E-03    0.297E-02
RMM:  12    -0.122774409901E+04   -0.13192E-04   -0.49951E-06  1453   0.519E-03    0.195E-02
RMM:  13    -0.122774410432E+04   -0.53076E-05   -0.32074E-06  1409   0.416E-03    0.184E-02
RMM:  14    -0.122774410767E+04   -0.33534E-05   -0.15854E-06  1356   0.306E-03    0.867E-03
RMM:  15    -0.122774411104E+04   -0.33637E-05   -0.68892E-07  1241   0.198E-03    0.632E-03
RMM:  16    -0.122774411430E+04   -0.32599E-05   -0.44390E-07  1205   0.159E-03    0.511E-03
RMM:  17    -0.122774411744E+04   -0.31460E-05   -0.34936E-07  1190   0.133E-03    0.586E-03
RMM:  18    -0.122774411920E+04   -0.17548E-05   -0.25229E-07  1118   0.117E-03    0.318E-03
RMM:  19    -0.122774412195E+04   -0.27549E-05   -0.14394E-07  1068   0.769E-04    0.239E-03
RMM:  20    -0.122774412434E+04   -0.23902E-05   -0.11751E-07  1040   0.673E-04    0.281E-03
RMM:  21    -0.122774412577E+04   -0.14274E-05   -0.91367E-08   855   0.654E-04    0.113E-03
RMM:  22    -0.122774412795E+04   -0.21732E-05   -0.70373E-08   877   0.459E-04    0.667E-04
RMM:  23    -0.122774412943E+04   -0.14826E-05   -0.53800E-08   812   0.422E-04    0.592E-04
RMM:  24    -0.122774413045E+04   -0.10237E-05   -0.44831E-08   761   0.394E-04    0.918E-04
RMM:  25    -0.122774413132E+04   -0.86943E-06   -0.36360E-08   716   0.385E-04
  14 F= -.12358853E+04 E0= -.12358743E+04  d E =-.803673E-02  mag=    47.0000
 curvature:  -0.49 expect dE=-0.163E-01 dE for cont linesearch -0.563E-06
 trial: gam= 0.61749 g(F)=  0.333E-01 g(S)=  0.204E-03 ort =-0.464E-03 (trialstep = 0.197E+00)
 search vector abs. value=  0.104E+00
 bond charge predicted
       N       E                     dE             d eps       ncg     rms          rms(c)
DAV:   1    -0.122774584591E+04   -0.17155E-02   -0.11888E+00  2088   0.221E+00    0.413E-01
RMM:   2    -0.122775023132E+04   -0.43854E-02   -0.22514E-02  2467   0.332E-01    0.119E+00
RMM:   3    -0.122775134025E+04   -0.11089E-02   -0.55462E-03  2500   0.157E-01    0.158E+00
RMM:   4    -0.122774935337E+04    0.19869E-02   -0.39996E-03  2435   0.136E-01    0.704E-01
RMM:   5    -0.122774892397E+04    0.42939E-03   -0.12819E-03  2319   0.778E-02    0.182E-01
RMM:   6    -0.122774927060E+04   -0.34663E-03   -0.36519E-04  2398   0.379E-02    0.205E-01
RMM:   7    -0.122774927462E+04   -0.40162E-05   -0.19536E-04  2441   0.286E-02    0.120E-01
RMM:   8    -0.122774936314E+04   -0.88522E-04   -0.15644E-04  2300   0.244E-02    0.178E-01
RMM:   9    -0.122774932782E+04    0.35318E-04   -0.11614E-04  2185   0.216E-02    0.974E-02
RMM:  10    -0.122774935383E+04   -0.26009E-04   -0.56436E-05  1969   0.159E-02    0.826E-02
RMM:  11    -0.122774934352E+04    0.10314E-04   -0.23139E-05  1607   0.101E-02    0.304E-02
RMM:  12    -0.122774936038E+04   -0.16857E-04   -0.60720E-06  1479   0.557E-03    0.236E-02
RMM:  13    -0.122774936471E+04   -0.43355E-05   -0.38318E-06  1421   0.443E-03    0.193E-02
RMM:  14    -0.122774936835E+04   -0.36393E-05   -0.15193E-06  1357   0.301E-03    0.702E-03
RMM:  15    -0.122774937205E+04   -0.36953E-05   -0.56164E-07  1232   0.177E-03    0.718E-03
RMM:  16    -0.122774937459E+04   -0.25448E-05   -0.62914E-07  1224   0.185E-03    0.879E-03
RMM:  17    -0.122774937672E+04   -0.21260E-05   -0.43883E-07  1194   0.154E-03    0.442E-03
RMM:  18    -0.122774937840E+04   -0.16850E-05   -0.23642E-07  1141   0.108E-03    0.337E-03
RMM:  19    -0.122774937989E+04   -0.14852E-05   -0.14893E-07  1059   0.847E-04    0.229E-03
RMM:  20    -0.122774938124E+04   -0.13511E-05   -0.10820E-07  1010   0.672E-04    0.298E-03
RMM:  21    -0.122774938226E+04   -0.10216E-05   -0.79980E-08   866   0.636E-04    0.948E-04
RMM:  22    -0.122774938357E+04   -0.13093E-05   -0.52649E-08   807   0.427E-04    0.723E-04
RMM:  23    -0.122774938428E+04   -0.71256E-06   -0.36386E-08   743   0.398E-04
  15 F= -.12358908E+04 E0= -.12358799E+04  d E =-.552113E-02  mag=    47.0000
 trial-energy change:   -0.005521  1 .order   -0.005519   -0.006548   -0.004489
 step:   0.6275(harm=  0.6275)  dis= 0.01077  next Energy= -1235.895721 (dE=-0.104E-01)
 bond charge predicted
       N       E                     dE             d eps       ncg     rms          rms(c)
DAV:   1    -0.122773675777E+04    0.12626E-01   -0.56505E+00  2064   0.482E+00    0.904E-01
RMM:   2    -0.122776009302E+04   -0.23335E-01   -0.10980E-01  2477   0.733E-01    0.263E+00
RMM:   3    -0.122776255487E+04   -0.24619E-02   -0.27028E-02  2509   0.343E-01    0.308E+00
RMM:   4    -0.122775566535E+04    0.68895E-02   -0.17798E-02  2436   0.283E-01    0.153E+00
RMM:   5    -0.122775223817E+04    0.34272E-02   -0.57835E-03  2348   0.163E-01    0.389E-01
RMM:   6    -0.122775349651E+04   -0.12583E-02   -0.17202E-03  2441   0.814E-02    0.447E-01
RMM:   7    -0.122775338560E+04    0.11091E-03   -0.94124E-04  2460   0.624E-02    0.256E-01
RMM:   8    -0.122775370976E+04   -0.32416E-03   -0.72701E-04  2421   0.528E-02    0.367E-01
RMM:   9    -0.122775355505E+04    0.15472E-03   -0.54781E-04  2332   0.458E-02    0.231E-01
RMM:  10    -0.122775361867E+04   -0.63629E-04   -0.27205E-04  2291   0.344E-02    0.188E-01
RMM:  11    -0.122775355653E+04    0.62145E-04   -0.12380E-04  2109   0.226E-02    0.720E-02
RMM:  12    -0.122775361156E+04   -0.55025E-04   -0.33817E-05  1861   0.123E-02    0.492E-02
RMM:  13    -0.122775362876E+04   -0.17203E-04   -0.19414E-05  1595   0.922E-03    0.447E-02
RMM:  14    -0.122775363744E+04   -0.86787E-05   -0.85423E-06  1489   0.661E-03    0.217E-02
RMM:  15    -0.122775364973E+04   -0.12295E-04   -0.40327E-06  1436   0.439E-03    0.183E-02
RMM:  16    -0.122775365893E+04   -0.91947E-05   -0.26522E-06  1404   0.367E-03    0.148E-02
RMM:  17    -0.122775366906E+04   -0.10132E-04   -0.22842E-06  1377   0.319E-03    0.174E-02
RMM:  18    -0.122775367389E+04   -0.48326E-05   -0.12977E-06  1303   0.272E-03    0.684E-03
RMM:  19    -0.122775368097E+04   -0.70748E-05   -0.53344E-07  1224   0.153E-03    0.435E-03
RMM:  20    -0.122775368520E+04   -0.42317E-05   -0.42573E-07  1189   0.142E-03    0.678E-03
RMM:  21    -0.122775368908E+04   -0.38775E-05   -0.32724E-07  1149   0.124E-03    0.215E-03
RMM:  22    -0.122775369350E+04   -0.44255E-05   -0.19967E-07  1116   0.775E-04    0.168E-03
RMM:  23    -0.122775369626E+04   -0.27630E-05   -0.14551E-07   973   0.685E-04    0.178E-03
RMM:  24    -0.122775369783E+04   -0.15652E-05   -0.10695E-07   863   0.601E-04    0.163E-03
RMM:  25    -0.122775370011E+04   -0.22823E-05   -0.90601E-08   854   0.514E-04    0.657E-04
RMM:  26    -0.122775370263E+04   -0.25152E-05   -0.89243E-08   867   0.457E-04    0.604E-04
RMM:  27    -0.122775370381E+04   -0.11821E-05   -0.68307E-08   815   0.450E-04    0.787E-04
RMM:  28    -0.122775370506E+04   -0.12526E-05   -0.59253E-08   780   0.402E-04    0.319E-04
RMM:  29    -0.122775370665E+04   -0.15899E-05   -0.60435E-08   785   0.396E-04    0.285E-04
RMM:  30    -0.122775370740E+04   -0.75174E-06   -0.48671E-08   760   0.384E-04
  16 F= -.12358957E+04 E0= -.12358850E+04  d E =-.104331E-01  mag=    47.0000
 curvature:  -0.98 expect dE=-0.169E-01 dE for cont linesearch -0.134E-07
 trial: gam= 0.48741 g(F)=  0.156E-01 g(S)=  0.158E-02 ort = 0.377E-04 (trialstep = 0.283E+00)
 search vector abs. value=  0.419E-01
 bond charge predicted
       N       E                     dE             d eps       ncg     rms          rms(c)
DAV:   1    -0.122775471311E+04   -0.10065E-02   -0.88083E-01  2112   0.203E+00    0.330E-01
RMM:   2    -0.122775729814E+04   -0.25850E-02   -0.20680E-02  2495   0.310E-01    0.700E-01
RMM:   3    -0.122775923797E+04   -0.19398E-02   -0.40712E-03  2502   0.139E-01    0.138E+00
RMM:   4    -0.122775689611E+04    0.23419E-02   -0.26602E-03  2469   0.111E-01    0.576E-01
RMM:   5    -0.122775688354E+04    0.12564E-04   -0.10399E-03  2325   0.721E-02    0.164E-01
RMM:   6    -0.122775713263E+04   -0.24909E-03   -0.30589E-04  2422   0.337E-02    0.227E-01
RMM:   7    -0.122775705164E+04    0.80990E-04   -0.16132E-04  2425   0.261E-02    0.936E-02
RMM:   8    -0.122775712782E+04   -0.76186E-04   -0.13308E-04  2319   0.232E-02    0.143E-01
RMM:   9    -0.122775711197E+04    0.15858E-04   -0.10068E-04  2167   0.200E-02    0.111E-01
RMM:  10    -0.122775711405E+04   -0.20861E-05   -0.54125E-05  1942   0.151E-02    0.808E-02
RMM:  11    -0.122775710559E+04    0.84674E-05   -0.22088E-05  1603   0.988E-03    0.302E-02
RMM:  12    -0.122775711414E+04   -0.85583E-05   -0.59810E-06  1473   0.565E-03    0.206E-02
RMM:  13    -0.122775711618E+04   -0.20397E-05   -0.31044E-06  1404   0.404E-03    0.172E-02
RMM:  14    -0.122775711736E+04   -0.11760E-05   -0.14130E-06  1344   0.288E-03    0.843E-03
RMM:  15    -0.122775711895E+04   -0.15928E-05   -0.83092E-07  1251   0.215E-03    0.774E-03
RMM:  16    -0.122775712036E+04   -0.14029E-05   -0.56660E-07  1225   0.184E-03    0.696E-03
RMM:  17    -0.122775712121E+04   -0.85142E-06   -0.40253E-07  1181   0.147E-03
  17 F= -.12358993E+04 E0= -.12358886E+04  d E =-.358034E-02  mag=    47.0000
 trial-energy change:   -0.003580  1 .order   -0.003572   -0.004876   -0.002268
 step:   0.5212(harm=  0.5297)  dis= 0.00325  next Energy= -1235.900279 (dE=-0.454E-02)
 bond charge predicted
       N       E                     dE             d eps       ncg     rms          rms(c)
DAV:   1    -0.122775628681E+04    0.83354E-03   -0.62081E-01  2112   0.171E+00    0.277E-01
RMM:   2    -0.122775808100E+04   -0.17942E-02   -0.14564E-02  2493   0.260E-01    0.587E-01
RMM:   3    -0.122775945266E+04   -0.13717E-02   -0.28668E-03  2499   0.117E-01    0.116E+00
RMM:   4    -0.122775775467E+04    0.16980E-02   -0.18654E-03  2475   0.932E-02    0.476E-01
RMM:   5    -0.122775779508E+04   -0.40412E-04   -0.72211E-04  2316   0.602E-02    0.136E-01
RMM:   6    -0.122775798564E+04   -0.19056E-03   -0.21448E-04  2389   0.282E-02    0.192E-01
RMM:   7    -0.122775792918E+04    0.56463E-04   -0.11375E-04  2390   0.219E-02    0.783E-02
RMM:   8    -0.122775798625E+04   -0.57073E-04   -0.93251E-05  2262   0.195E-02    0.118E-01
RMM:   9    -0.122775797811E+04    0.81416E-05   -0.70624E-05  2074   0.168E-02    0.941E-02
RMM:  10    -0.122775797896E+04   -0.84675E-06   -0.37844E-05  1860   0.127E-02    0.669E-02
RMM:  11    -0.122775797438E+04    0.45818E-05   -0.15204E-05  1526   0.832E-03    0.266E-02
RMM:  12    -0.122775798045E+04   -0.60707E-05   -0.44155E-06  1440   0.495E-03    0.173E-02
RMM:  13    -0.122775798237E+04   -0.19214E-05   -0.22182E-06  1391   0.346E-03    0.141E-02
RMM:  14    -0.122775798350E+04   -0.11329E-05   -0.10148E-06  1276   0.250E-03    0.769E-03
RMM:  15    -0.122775798482E+04   -0.13164E-05   -0.62185E-07  1226   0.190E-03    0.596E-03
RMM:  16    -0.122775798622E+04   -0.14069E-05   -0.38836E-07  1195   0.150E-03    0.577E-03
RMM:  17    -0.122775798697E+04   -0.74619E-06   -0.28828E-07  1152   0.125E-03
  18 F= -.12359003E+04 E0= -.12358896E+04  d E =-.458675E-02  mag=    47.0000
 curvature:  -0.64 expect dE=-0.891E-02 dE for cont linesearch -0.168E-05
 trial: gam= 0.78677 g(F)=  0.132E-01 g(S)=  0.675E-03 ort = 0.331E-03 (trialstep = 0.331E+00)
 search vector abs. value=  0.403E-01
 bond charge predicted
       N       E                     dE             d eps       ncg     rms          rms(c)
DAV:   1    -0.122775764956E+04    0.33666E-03   -0.10385E+00  2064   0.225E+00    0.340E-01
RMM:   2    -0.122776037171E+04   -0.27221E-02   -0.26633E-02  2500   0.348E-01    0.567E-01
RMM:   3    -0.122776268452E+04   -0.23128E-02   -0.47357E-03  2519   0.151E-01    0.135E+00
RMM:   4    -0.122776015350E+04    0.25310E-02   -0.25243E-03  2515   0.107E-01    0.626E-01
RMM:   5    -0.122776017765E+04   -0.24151E-04   -0.11706E-03  2329   0.760E-02    0.196E-01
RMM:   6    -0.122776046517E+04   -0.28752E-03   -0.44105E-04  2419   0.408E-02    0.301E-01
RMM:   7    -0.122776027841E+04    0.18676E-03   -0.27762E-04  2410   0.348E-02    0.131E-01
RMM:   8    -0.122776040288E+04   -0.12447E-03   -0.23626E-04  2334   0.310E-02    0.209E-01
RMM:   9    -0.122776033151E+04    0.71372E-04   -0.16376E-04  2214   0.255E-02    0.131E-01
RMM:  10    -0.122776032852E+04    0.29870E-05   -0.71652E-05  2009   0.180E-02    0.794E-02
RMM:  11    -0.122776032346E+04    0.50630E-05   -0.27652E-05  1677   0.111E-02    0.400E-02
RMM:  12    -0.122776032872E+04   -0.52634E-05   -0.94373E-06  1497   0.693E-03    0.239E-02
RMM:  13    -0.122776033187E+04   -0.31449E-05   -0.39891E-06  1430   0.467E-03    0.177E-02
RMM:  14    -0.122776033338E+04   -0.15121E-05   -0.21354E-06  1386   0.336E-03    0.126E-02
RMM:  15    -0.122776033630E+04   -0.29163E-05   -0.11342E-06  1293   0.254E-03    0.821E-03
RMM:  16    -0.122776033929E+04   -0.29910E-05   -0.69480E-07  1227   0.201E-03    0.799E-03
RMM:  17    -0.122776034092E+04   -0.16296E-05   -0.54918E-07  1193   0.177E-03    0.721E-03
RMM:  18    -0.122776034258E+04   -0.16672E-05   -0.30117E-07  1156   0.131E-03    0.323E-03
RMM:  19    -0.122776034537E+04   -0.27870E-05   -0.17183E-07  1120   0.816E-04    0.269E-03
RMM:  20    -0.122776034730E+04   -0.19308E-05   -0.14668E-07  1069   0.812E-04    0.361E-03
RMM:  21    -0.122776034890E+04   -0.15937E-05   -0.10878E-07   963   0.708E-04    0.117E-03
RMM:  22    -0.122776035056E+04   -0.16641E-05   -0.69188E-08   870   0.482E-04    0.794E-04
RMM:  23    -0.122776035175E+04   -0.11910E-05   -0.51898E-08   798   0.450E-04    0.111E-03
RMM:  24    -0.122776035266E+04   -0.91225E-06   -0.41902E-08   763   0.422E-04
  19 F= -.12359032E+04 E0= -.12358925E+04  d E =-.284446E-02  mag=    47.0000
 trial-energy change:   -0.002844  1 .order   -0.002841   -0.004661   -0.001020
 step:   0.4236(harm=  0.4236)  dis= 0.00243  next Energy= -1235.903312 (dE=-0.298E-02)
 bond charge predicted
       N       E                     dE             d eps       ncg     rms          rms(c)
DAV:   1    -0.122776015132E+04    0.20043E-03   -0.81440E-02  2184   0.630E-01    0.953E-02
RMM:   2    -0.122776034238E+04   -0.19106E-03   -0.20890E-03  2500   0.973E-02    0.157E-01
RMM:   3    -0.122776052013E+04   -0.17775E-03   -0.37087E-04  2508   0.424E-02    0.380E-01
RMM:   4    -0.122776029251E+04    0.22762E-03   -0.19720E-04  2416   0.299E-02    0.180E-01
RMM:   5    -0.122776033031E+04   -0.37805E-04   -0.93628E-05  2069   0.218E-02    0.555E-02
RMM:   6    -0.122776036413E+04   -0.33821E-04   -0.34729E-05  1902   0.118E-02    0.841E-02
RMM:   7    -0.122776035110E+04    0.13037E-04   -0.21521E-05  1883   0.100E-02    0.354E-02
RMM:   8    -0.122776036621E+04   -0.15114E-04   -0.18764E-05  1699   0.907E-03    0.603E-02
RMM:   9    -0.122776035974E+04    0.64734E-05   -0.12856E-05  1502   0.771E-03    0.357E-02
RMM:  10    -0.122776036149E+04   -0.17567E-05   -0.56850E-06  1446   0.562E-03    0.223E-02
RMM:  11    -0.122776036156E+04   -0.68780E-07   -0.22578E-06  1365   0.358E-03
  20 F= -.12359033E+04 E0= -.12358927E+04  d E =-.298767E-02  mag=    47.0000
 curvature:  -0.61 expect dE=-0.138E-01 dE for cont linesearch -0.614E-07
 trial: gam= 1.68453 g(F)=  0.225E-01 g(S)=  0.385E-03 ort = 0.639E-04 (trialstep = 0.102E+00)
 search vector abs. value=  0.137E+00
 bond charge predicted
       N       E                     dE             d eps       ncg     rms          rms(c)
DAV:   1    -0.122776093381E+04   -0.57232E-03   -0.33700E-01  2088   0.128E+00    0.198E-01
RMM:   2    -0.122776173392E+04   -0.80011E-03   -0.88902E-03  2487   0.198E-01    0.290E-01
RMM:   3    -0.122776243500E+04   -0.70108E-03   -0.15154E-03  2509   0.863E-02    0.722E-01
RMM:   4    -0.122776165331E+04    0.78169E-03   -0.73434E-04  2531   0.569E-02    0.366E-01
RMM:   5    -0.122776169678E+04   -0.43464E-04   -0.38277E-04  2264   0.434E-02    0.121E-01
RMM:   6    -0.122776182768E+04   -0.13090E-03   -0.18108E-04  2323   0.262E-02    0.209E-01
RMM:   7    -0.122776173495E+04    0.92721E-04   -0.13178E-04  2349   0.239E-02    0.965E-02
RMM:   8    -0.122776177207E+04   -0.37116E-04   -0.99747E-05  2173   0.205E-02    0.111E-01
RMM:   9    -0.122776176680E+04    0.52678E-05   -0.62429E-05  1959   0.158E-02    0.999E-02
RMM:  10    -0.122776174979E+04    0.17010E-04   -0.27878E-05  1694   0.115E-02    0.380E-02
RMM:  11    -0.122776175498E+04   -0.51905E-05   -0.94843E-06  1494   0.682E-03    0.280E-02
RMM:  12    -0.122776175543E+04   -0.44466E-06   -0.36877E-06  1412   0.458E-03
  21 F= -.12359049E+04 E0= -.12358943E+04  d E =-.161925E-02  mag=    47.0000
 trial-energy change:   -0.001619  1 .order   -0.001639   -0.002352   -0.000925
 step:   0.1802(harm=  0.1690)  dis= 0.00210  next Energy= -1235.905278 (dE=-0.196E-02)
 bond charge predicted
       N       E                     dE             d eps       ncg     rms          rms(c)
DAV:   1    -0.122776139551E+04    0.35947E-03   -0.19381E-01  2124   0.973E-01    0.150E-01
RMM:   2    -0.122776185667E+04   -0.46116E-03   -0.51259E-03  2482   0.151E-01    0.235E-01
RMM:   3    -0.122776225835E+04   -0.40168E-03   -0.88546E-04  2504   0.664E-02    0.561E-01
RMM:   4    -0.122776177712E+04    0.48122E-03   -0.43857E-04  2503   0.443E-02    0.273E-01
RMM:   5    -0.122776182312E+04   -0.45991E-04   -0.22294E-04  2225   0.334E-02    0.917E-02
RMM:   6    -0.122776190445E+04   -0.81332E-04   -0.10337E-04  2199   0.199E-02    0.159E-01
RMM:   7    -0.122776184832E+04    0.56130E-04   -0.72167E-05  2229   0.179E-02    0.638E-02
RMM:   8    -0.122776188226E+04   -0.33938E-04   -0.53117E-05  2007   0.151E-02    0.954E-02
RMM:   9    -0.122776186707E+04    0.15187E-04   -0.34855E-05  1779   0.121E-02    0.624E-02
RMM:  10    -0.122776186706E+04    0.13664E-07   -0.13651E-05  1524   0.825E-03    0.304E-02
RMM:  11    -0.122776186854E+04   -0.14849E-05   -0.52555E-06  1450   0.537E-03    0.200E-02
RMM:  12    -0.122776187040E+04   -0.18548E-05   -0.19997E-06  1379   0.338E-03    0.102E-02
RMM:  13    -0.122776187170E+04   -0.13082E-05   -0.80765E-07  1236   0.224E-03    0.639E-03
RMM:  14    -0.122776187317E+04   -0.14676E-05   -0.46150E-07  1187   0.164E-03    0.668E-03
RMM:  15    -0.122776187448E+04   -0.13104E-05   -0.39234E-07  1189   0.152E-03    0.542E-03
RMM:  16    -0.122776187605E+04   -0.15711E-05   -0.22913E-07  1155   0.114E-03    0.332E-03
RMM:  17    -0.122776187718E+04   -0.11297E-05   -0.15104E-07  1063   0.876E-04    0.367E-03
RMM:  18    -0.122776187816E+04   -0.98282E-06   -0.10187E-07   986   0.743E-04
  22 F= -.12359052E+04 E0= -.12358947E+04  d E =-.191306E-02  mag=    47.0000
 curvature:  -0.49 expect dE=-0.607E-02 dE for cont linesearch -0.937E-05
 trial: gam= 0.59692 g(F)=  0.121E-01 g(S)=  0.274E-03 ort =-0.162E-02 (trialstep = 0.118E+00)
 search vector abs. value=  0.594E-01
 bond charge predicted
       N       E                     dE             d eps       ncg     rms          rms(c)
DAV:   1    -0.122776265405E+04   -0.77686E-03   -0.18935E-01  2100   0.960E-01    0.139E-01
RMM:   2    -0.122776305250E+04   -0.39845E-03   -0.47263E-03  2484   0.146E-01    0.188E-01
RMM:   3    -0.122776338552E+04   -0.33303E-03   -0.84140E-04  2507   0.642E-02    0.468E-01
RMM:   4    -0.122776308348E+04    0.30204E-03   -0.37400E-04  2540   0.396E-02    0.323E-01
RMM:   5    -0.122776301901E+04    0.64465E-04   -0.22172E-04  2221   0.330E-02    0.589E-02
RMM:   6    -0.122776308755E+04   -0.68536E-04   -0.57468E-05  2177   0.153E-02    0.918E-02
RMM:   7    -0.122776308045E+04    0.71006E-05   -0.37577E-05  1882   0.122E-02    0.660E-02
RMM:   8    -0.122776308631E+04   -0.58669E-05   -0.27593E-05  1926   0.109E-02    0.479E-02
RMM:   9    -0.122776309116E+04   -0.48431E-05   -0.17894E-05  1639   0.905E-03    0.499E-02
RMM:  10    -0.122776308975E+04    0.14071E-05   -0.98639E-06  1488   0.703E-03    0.315E-02
RMM:  11    -0.122776309153E+04   -0.17833E-05   -0.49846E-06  1431   0.506E-03    0.244E-02
RMM:  12    -0.122776309223E+04   -0.69543E-06   -0.21977E-06  1376   0.357E-03
  23 F= -.12359064E+04 E0= -.12358959E+04  d E =-.120470E-02  mag=    47.0000
 ZBRENT: can't locate minimum, use default step
 trial-energy change:   -0.001205  1 .order   -0.001208   -0.001344   -0.001071
 step:   0.4721(harm=  0.5794)  dis= 0.00339  next Energy= -1235.908530 (dE=-0.330E-02)
 bond charge predicted
       N       E                     dE             d eps       ncg     rms          rms(c)
DAV:   1    -0.122776102571E+04    0.20658E-02   -0.17036E+00  2064   0.288E+00    0.418E-01
RMM:   2    -0.122776500362E+04   -0.39779E-02   -0.42528E-02  2485   0.438E-01    0.613E-01
RMM:   3    -0.122776831105E+04   -0.33074E-02   -0.76415E-03  2508   0.194E-01    0.152E+00
RMM:   4    -0.122776521982E+04    0.30912E-02   -0.36231E-03  2551   0.125E-01    0.868E-01
RMM:   5    -0.122776470872E+04    0.51110E-03   -0.19625E-03  2337   0.980E-02    0.180E-01
RMM:   6    -0.122776508154E+04   -0.37282E-03   -0.53450E-04  2442   0.451E-02    0.300E-01
RMM:   7    -0.122776493847E+04    0.14308E-03   -0.34766E-04  2364   0.363E-02    0.184E-01
RMM:   8    -0.122776495705E+04   -0.18577E-04   -0.23547E-04  2371   0.313E-02    0.136E-01
RMM:   9    -0.122776499347E+04   -0.36426E-04   -0.16302E-04  2293   0.261E-02    0.165E-01
RMM:  10    -0.122776495447E+04    0.38998E-04   -0.90494E-05  2103   0.196E-02    0.888E-02
RMM:  11    -0.122776496796E+04   -0.13483E-04   -0.43780E-05  1854   0.137E-02    0.733E-02
RMM:  12    -0.122776496467E+04    0.32810E-05   -0.18419E-05  1559   0.934E-03    0.290E-02
RMM:  13    -0.122776497038E+04   -0.57070E-05   -0.68022E-06  1484   0.584E-03    0.186E-02
RMM:  14    -0.122776497404E+04   -0.36583E-05   -0.30632E-06  1408   0.390E-03    0.169E-02
RMM:  15    -0.122776497723E+04   -0.31915E-05   -0.23631E-06  1393   0.352E-03    0.141E-02
RMM:  16    -0.122776498280E+04   -0.55689E-05   -0.11783E-06  1298   0.259E-03    0.831E-03
RMM:  17    -0.122776498586E+04   -0.30557E-05   -0.81580E-07  1249   0.212E-03    0.973E-03
RMM:  18    -0.122776498882E+04   -0.29617E-05   -0.50838E-07  1205   0.172E-03    0.377E-03
RMM:  19    -0.122776499320E+04   -0.43834E-05   -0.25700E-07  1177   0.102E-03    0.294E-03
RMM:  20    -0.122776499627E+04   -0.30701E-05   -0.22649E-07  1087   0.102E-03    0.437E-03
RMM:  21    -0.122776500025E+04   -0.39783E-05   -0.18719E-07  1095   0.884E-04    0.152E-03
RMM:  22    -0.122776500398E+04   -0.37286E-05   -0.13174E-07   980   0.610E-04    0.990E-04
RMM:  23    -0.122776500671E+04   -0.27306E-05   -0.10721E-07   925   0.570E-04    0.139E-03
RMM:  24    -0.122776500879E+04   -0.20809E-05   -0.91172E-08   895   0.544E-04    0.124E-03
RMM:  25    -0.122776501217E+04   -0.33806E-05   -0.10963E-07   985   0.509E-04    0.693E-04
RMM:  26    -0.122776501521E+04   -0.30359E-05   -0.10553E-07   968   0.506E-04    0.784E-04
RMM:  27    -0.122776501682E+04   -0.16147E-05   -0.85420E-08   873   0.480E-04    0.837E-04
RMM:  28    -0.122776501923E+04   -0.24094E-05   -0.97159E-08   912   0.458E-04    0.378E-04
RMM:  29    -0.122776502191E+04   -0.26841E-05   -0.11691E-07   955   0.479E-04    0.339E-04
RMM:  30    -0.122776502292E+04   -0.10043E-05   -0.87244E-08   900   0.469E-04    0.562E-04
RMM:  31    -0.122776502361E+04   -0.69637E-06   -0.62881E-08   765   0.396E-04
  24 F= -.12359083E+04 E0= -.12358978E+04  d E =-.310847E-02  mag=    47.0000
 curvature:  -1.43 expect dE=-0.112E-01 dE for cont linesearch -0.665E-04
 ZBRENT: extrapolating
 opt :   0.5515  next Energy= -1235.908404 (dE=-0.317E-02)
 bond charge predicted
       N       E                     dE             d eps       ncg     rms          rms(c)
DAV:   1    -0.122776489926E+04    0.12366E-03   -0.85722E-02  2208   0.646E-01    0.937E-02
RMM:   2    -0.122776507094E+04   -0.17169E-03   -0.21373E-03  2481   0.982E-02    0.133E-01
RMM:   3    -0.122776523532E+04   -0.16437E-03   -0.38345E-04  2499   0.434E-02    0.334E-01
RMM:   4    -0.122776505996E+04    0.17536E-03   -0.17713E-04  2426   0.276E-02    0.204E-01
RMM:   5    -0.122776506048E+04   -0.52006E-06   -0.10013E-04  2082   0.225E-02    0.404E-02
RMM:   6    -0.122776509613E+04   -0.35650E-04   -0.27413E-05  1928   0.105E-02    0.695E-02
RMM:   7    -0.122776508895E+04    0.71860E-05   -0.17358E-05  1636   0.854E-03    0.392E-02
RMM:   8    -0.122776509456E+04   -0.56144E-05   -0.12505E-05  1684   0.765E-03    0.325E-02
RMM:   9    -0.122776509671E+04   -0.21466E-05   -0.84316E-06  1484   0.644E-03    0.353E-02
RMM:  10    -0.122776509563E+04    0.10735E-05   -0.47947E-06  1423   0.515E-03    0.210E-02
RMM:  11    -0.122776509655E+04   -0.92109E-06   -0.23741E-06  1360   0.358E-03
  25 F= -.12359084E+04 E0= -.12358979E+04  d E =-.317535E-02  mag=    47.0000
 curvature:  -1.42 expect dE=-0.134E-01 dE for cont linesearch -0.542E-06
 trial: gam= 0.54867 g(F)=  0.934E-02 g(S)=  0.108E-03 ort = 0.151E-03 (trialstep = 0.205E+00)
 search vector abs. value=  0.275E-01
 bond charge predicted
       N       E                     dE             d eps       ncg     rms          rms(c)
DAV:   1    -0.122776616812E+04   -0.10725E-02   -0.26338E-01  2088   0.114E+00    0.160E-01
RMM:   2    -0.122776673371E+04   -0.56559E-03   -0.65236E-03  2508   0.167E-01    0.221E-01
RMM:   3    -0.122776736272E+04   -0.62901E-03   -0.10547E-03  2453   0.748E-02    0.657E-01
RMM:   4    -0.122776662725E+04    0.73547E-03   -0.55349E-04  2542   0.497E-02    0.276E-01
RMM:   5    -0.122776672371E+04   -0.96463E-04   -0.26280E-04  2238   0.367E-02    0.706E-02
RMM:   6    -0.122776680597E+04   -0.82261E-04   -0.83685E-05  2304   0.180E-02    0.128E-01
RMM:   7    -0.122776677674E+04    0.29233E-04   -0.56609E-05  2073   0.151E-02    0.722E-02
RMM:   8    -0.122776678900E+04   -0.12267E-04   -0.41645E-05  2018   0.133E-02    0.548E-02
RMM:   9    -0.122776679652E+04   -0.75179E-05   -0.24318E-05  1776   0.105E-02    0.674E-02
RMM:  10    -0.122776678744E+04    0.90807E-05   -0.12510E-05  1503   0.760E-03    0.298E-02
RMM:  11    -0.122776679205E+04   -0.46101E-05   -0.47936E-06  1441   0.521E-03    0.189E-02
RMM:  12    -0.122776679340E+04   -0.13543E-05   -0.22599E-06  1378   0.348E-03    0.144E-02
RMM:  13    -0.122776679450E+04   -0.11000E-05   -0.90589E-07  1260   0.238E-03    0.604E-03
RMM:  14    -0.122776679622E+04   -0.17195E-05   -0.34653E-07  1189   0.146E-03    0.347E-03
RMM:  15    -0.122776679816E+04   -0.19387E-05   -0.24783E-07  1184   0.115E-03    0.533E-03
RMM:  16    -0.122776679920E+04   -0.10390E-05   -0.21998E-07  1172   0.113E-03    0.306E-03
RMM:  17    -0.122776680073E+04   -0.15313E-05   -0.10864E-07  1079   0.723E-04    0.213E-03
RMM:  18    -0.122776680162E+04   -0.88746E-06   -0.76915E-08   911   0.638E-04
  26 F= -.12359100E+04 E0= -.12358995E+04  d E =-.157414E-02  mag=    47.0000
 trial-energy change:   -0.001574  1 .order   -0.001579   -0.001952   -0.001207
 step:   0.5795(harm=  0.5365)  dis= 0.00304  next Energy= -1235.911053 (dE=-0.265E-02)
[...]
DAV:   1    -0.122778044141E+04    0.56776E-05   -0.32253E-04  2352   0.383E-02    0.740E-03
RMM:   2    -0.122778044508E+04   -0.36708E-05   -0.96012E-06  1713   0.708E-03    0.397E-02
RMM:   3    -0.122778043955E+04    0.55311E-05   -0.28152E-06  1341   0.446E-03    0.110E-02
RMM:   4    -0.122778044210E+04   -0.25527E-05   -0.97295E-07  1227   0.246E-03    0.142E-02
RMM:   5    -0.122778044171E+04    0.38563E-06   -0.44071E-07  1175   0.184E-03
 338 F= -.12359326E+04 E0= -.12359226E+04  d E =-.338212E-05  mag=    47.0000
 ZBRENT: can't locate minimum, use default step
 trial-energy change:   -0.000003  1 .order   -0.000004   -0.000004   -0.000004
 step:   0.2227(harm=  0.3208)  dis= 0.00027  next Energy= -1235.932594 (dE=-0.124E-04)
 bond charge predicted
       N       E                     dE             d eps       ncg     rms          rms(c)
DAV:   1    -0.122778041479E+04    0.27307E-04   -0.29154E-03  2076   0.112E-01    0.144E-02
RMM:   2    -0.122778042031E+04   -0.55171E-05   -0.63675E-05  2396   0.157E-02    0.370E-02
RMM:   3    -0.122778041799E+04    0.23145E-05   -0.83604E-06  1614   0.733E-03    0.364E-02
RMM:   4    -0.122778041874E+04   -0.74384E-06   -0.42865E-06  1433   0.491E-03    0.295E-02
RMM:   5    -0.122778041885E+04   -0.11252E-06   -0.20105E-06  1315   0.381E-03
 339 F= -.12359326E+04 E0= -.12359226E+04  d E =-.971812E-05  mag=    47.0000
 curvature:  -0.73 expect dE=-0.192E-04 dE for cont linesearch -0.144E-05
 ZBRENT: increasing intervall
 opt :   0.5568  next Energy= -1235.932588 (dE=-0.731E-05)
 bond charge predicted
       N       E                     dE             d eps       ncg     rms          rms(c)
DAV:   1    -0.122778033378E+04    0.84958E-04   -0.11645E-02  2064   0.225E-01    0.303E-02
RMM:   2    -0.122778036244E+04   -0.28665E-04   -0.26080E-04  2400   0.322E-02    0.853E-02
RMM:   3    -0.122778034962E+04    0.12821E-04   -0.39265E-05  2107   0.152E-02    0.543E-02
RMM:   4    -0.122778036260E+04   -0.12981E-04   -0.16091E-05  1719   0.850E-03    0.821E-02
RMM:   5    -0.122778034420E+04    0.18408E-04   -0.78960E-06  1465   0.682E-03    0.172E-02
RMM:   6    -0.122778035603E+04   -0.11836E-04   -0.41362E-06  1403   0.464E-03    0.247E-02
RMM:   7    -0.122778035653E+04   -0.49468E-06   -0.27273E-06  1343   0.402E-03
 340 F= -.12359326E+04 E0= -.12359226E+04  d E =-.578494E-05  mag=    47.0000
 curvature:   1.21 expect dE= 0.236E-03 dE for cont linesearch  0.352E-05
 ZBRENT: bracketing found
 ZBRENT: interpolating
 opt :   0.3739  next Energy= -1235.932593 (dE=-0.119E-04)
 bond charge predicted
       N       E                     dE             d eps       ncg     rms          rms(c)
DAV:   1    -0.122778038850E+04   -0.32467E-04   -0.35421E-03  2220   0.125E-01    0.251E-02
RMM:   2    -0.122778042705E+04   -0.38547E-04   -0.11537E-04  2376   0.233E-02    0.119E-01
RMM:   3    -0.122778038432E+04    0.42725E-04   -0.31888E-05  1875   0.130E-02    0.278E-02
RMM:   4    -0.122778039634E+04   -0.12017E-04   -0.72052E-06  1493   0.610E-03    0.372E-02
RMM:   5    -0.122778039388E+04    0.24540E-05   -0.31882E-06  1366   0.431E-03    0.323E-02
RMM:   6    -0.122778039403E+04   -0.14550E-06   -0.19244E-06  1306   0.351E-03
 341 F= -.12359326E+04 E0= -.12359226E+04  d E =-.113257E-04  mag=    47.0000
 curvature:  -0.74 expect dE=-0.562E-04 dE for cont linesearch -0.295E-06
 ZBRENT: interpolating
 opt :   0.3272  next Energy= -1235.932593 (dE=-0.116E-04)
 bond charge predicted
       N       E                     dE             d eps       ncg     rms          rms(c)
DAV:   1    -0.122778040399E+04   -0.10101E-04   -0.22449E-04  2340   0.327E-02    0.104E-02
RMM:   2    -0.122778041106E+04   -0.70792E-05   -0.12750E-05  1696   0.821E-03    0.544E-02
RMM:   3    -0.122778040158E+04    0.94896E-05   -0.51936E-06  1399   0.556E-03    0.116E-02
RMM:   4    -0.122778040414E+04   -0.25640E-05   -0.10730E-06  1238   0.264E-03    0.964E-03
RMM:   5    -0.122778040417E+04   -0.28784E-07   -0.40213E-07  1169   0.165E-03
 342 F= -.12359326E+04 E0= -.12359226E+04  d E =-.132906E-04  mag=    47.0000
 curvature:  -0.75 expect dE=-0.385E-04 dE for cont linesearch -0.182E-07
 trial: gam= 0.87119 g(F)=  0.507E-04 g(S)=  0.744E-06 ort = 0.315E-05 (trialstep = 0.110E+00)
 search vector abs. value=  0.366E-03
 bond charge predicted
       N       E                     dE             d eps       ncg     rms          rms(c)
DAV:   1    -0.122778039759E+04    0.65517E-05   -0.11708E-03  2208   0.711E-02    0.944E-03
RMM:   2    -0.122778040320E+04   -0.56096E-05   -0.26070E-05  2120   0.107E-02    0.413E-02
RMM:   3    -0.122778039721E+04    0.59906E-05   -0.44811E-06  1450   0.562E-03    0.198E-02
RMM:   4    -0.122778039984E+04   -0.26301E-05   -0.18522E-06  1307   0.333E-03    0.165E-02
RMM:   5    -0.122778039994E+04   -0.10448E-06   -0.76067E-07  1207   0.238E-03
 343 F= -.12359326E+04 E0= -.12359226E+04  d E =-.549809E-05  mag=    47.0000
 ZBRENT: can't locate minimum, use default step
 trial-energy change:   -0.000005  1 .order   -0.000005   -0.000006   -0.000005
 step:   0.4399(harm=  0.6136)  dis= 0.00052  next Energy= -1235.932611 (dE=-0.166E-04)
 bond charge predicted
       N       E                     dE             d eps       ncg     rms          rms(c)
DAV:   1    -0.122778036127E+04    0.38562E-04   -0.10492E-02  2064   0.212E-01    0.225E-02
RMM:   2    -0.122778037696E+04   -0.15688E-04   -0.20525E-04  2273   0.273E-02    0.387E-02
RMM:   3    -0.122778038404E+04   -0.70731E-05   -0.26575E-05  1991   0.133E-02    0.667E-02
RMM:   4    -0.122778037670E+04    0.73350E-05   -0.11112E-05  1709   0.731E-03    0.471E-02
RMM:   5    -0.122778037779E+04   -0.10899E-05   -0.46528E-06  1414   0.559E-03    0.127E-02
RMM:   6    -0.122778038173E+04   -0.39440E-05   -0.19043E-06  1353   0.331E-03    0.166E-02
RMM:   7    -0.122778038211E+04   -0.37644E-06   -0.13387E-06  1261   0.301E-03
 344 F= -.12359326E+04 E0= -.12359226E+04  d E =-.167966E-04  mag=    47.0000
 curvature:  -1.83 expect dE=-0.109E-03 dE for cont linesearch -0.757E-05
 ZBRENT: increasing intervall
 opt :   1.0998  next Energy= -1235.932633 (dE=-0.388E-04)
 bond charge predicted
       N       E                     dE             d eps       ncg     rms          rms(c)
DAV:   1    -0.122778024160E+04    0.14014E-03   -0.41802E-02  2064   0.423E-01    0.444E-02
RMM:   2    -0.122778030878E+04   -0.67186E-04   -0.81823E-04  2310   0.547E-02    0.564E-02
RMM:   3    -0.122778034005E+04   -0.31270E-04   -0.10126E-04  2227   0.259E-02    0.117E-01
RMM:   4    -0.122778031160E+04    0.28453E-04   -0.40996E-05  2130   0.132E-02    0.796E-02
RMM:   5    -0.122778031716E+04   -0.55645E-05   -0.16035E-05  1637   0.962E-03    0.302E-02
RMM:   6    -0.122778032418E+04   -0.70228E-05   -0.60287E-06  1459   0.541E-03    0.268E-02
RMM:   7    -0.122778032743E+04   -0.32451E-05   -0.47839E-06  1434   0.494E-03    0.285E-02
RMM:   8    -0.122778032777E+04   -0.33977E-06   -0.44845E-06  1468   0.502E-03
 345 F= -.12359326E+04 E0= -.12359226E+04  d E =-.207300E-04  mag=    47.0000
 curvature:  -5.33 expect dE=-0.136E-02 dE for cont linesearch -0.175E-05
 ZBRENT: extrapolating
 opt :   1.3587  next Energy= -1235.932617 (dE=-0.221E-04)
 bond charge predicted
       N       E                     dE             d eps       ncg     rms          rms(c)
DAV:   1    -0.122778029076E+04    0.36672E-04   -0.63614E-03  2208   0.166E-01    0.266E-02
RMM:   2    -0.122778033201E+04   -0.41253E-04   -0.16910E-04  2397   0.281E-02    0.115E-01
RMM:   3    -0.122778028697E+04    0.45046E-04   -0.37637E-05  2021   0.150E-02    0.297E-02
RMM:   4    -0.122778030357E+04   -0.16601E-04   -0.87304E-06  1565   0.646E-03    0.471E-02
RMM:   5    -0.122778029874E+04    0.48220E-05   -0.35768E-06  1390   0.471E-03    0.250E-02
RMM:   6    -0.122778030148E+04   -0.27353E-05   -0.18310E-06  1309   0.337E-03    0.955E-03
RMM:   7    -0.122778030334E+04   -0.18642E-05   -0.10059E-06  1241   0.247E-03    0.117E-02
RMM:   8    -0.122778030391E+04   -0.56809E-06   -0.89017E-07  1212   0.241E-03
 346 F= -.12359326E+04 E0= -.12359226E+04  d E =-.197290E-04  mag=    47.0000
 curvature:  -4.32 expect dE=-0.172E-02 dE for cont linesearch -0.301E-05
 ZBRENT: bracketing found
 ZBRENT: interpolating
 opt :   1.2052  next Energy= -1235.932616 (dE=-0.213E-04)
 bond charge predicted
       N       E                     dE             d eps       ncg     rms          rms(c)
DAV:   1    -0.122778031598E+04   -0.12633E-04   -0.22910E-03  2148   0.994E-02    0.144E-02
RMM:   2    -0.122778032867E+04   -0.12694E-04   -0.53686E-05  2281   0.152E-02    0.677E-02
RMM:   3    -0.122778031475E+04    0.13920E-04   -0.10609E-05  1565   0.800E-03    0.219E-02
RMM:   4    -0.122778032172E+04   -0.69692E-05   -0.36608E-06  1411   0.452E-03    0.322E-02
RMM:   5    -0.122778031876E+04    0.29598E-05   -0.16332E-06  1286   0.330E-03    0.115E-02
RMM:   6    -0.122778032082E+04   -0.20577E-05   -0.67349E-07  1196   0.226E-03    0.553E-03
RMM:   7    -0.122778032118E+04   -0.36599E-06   -0.30401E-07  1168   0.145E-03
 347 F= -.12359326E+04 E0= -.12359226E+04  d E =-.234485E-04  mag=    47.0000
 curvature:  -0.83 expect dE=-0.263E-03 dE for cont linesearch -0.614E-06
 ZBRENT: interpolating
 opt :   1.1420  next Energy= -1235.932615 (dE=-0.210E-04)
 bond charge predicted
       N       E                     dE             d eps       ncg     rms          rms(c)
DAV:   1    -0.122778032675E+04   -0.59326E-05   -0.37932E-04  2184   0.406E-02    0.549E-03
RMM:   2    -0.122778032873E+04   -0.19762E-05   -0.83647E-06  1688   0.626E-03    0.281E-02
RMM:   3    -0.122778032564E+04    0.30855E-05   -0.17859E-06  1285   0.377E-03    0.991E-03
RMM:   4    -0.122778032712E+04   -0.14827E-05   -0.68777E-07  1188   0.213E-03    0.830E-03
RMM:   5    -0.122778032733E+04   -0.20939E-06   -0.34113E-07  1172   0.158E-03
 348 F= -.12359326E+04 E0= -.12359226E+04  d E =-.240217E-04  mag=    47.0000
 curvature:  -0.31 expect dE=-0.885E-04 dE for cont linesearch -0.487E-07
 trial: gam= 5.52530 g(F)=  0.280E-03 g(S)=  0.240E-05 ort =-0.756E-05 (trialstep = 0.102E-01)
 search vector abs. value=  0.114E-01
 bond charge predicted
       N       E                     dE             d eps       ncg     rms          rms(c)
DAV:   1    -0.122778032605E+04    0.10724E-05   -0.31196E-04  2268   0.367E-02    0.447E-03
RMM:   2    -0.122778032689E+04   -0.84211E-06   -0.56460E-06  1452   0.493E-03    0.983E-03
RMM:   3    -0.122778032692E+04   -0.22286E-07   -0.11211E-06  1210   0.293E-03    0.949E-03
RMM:   4    -0.122778032707E+04   -0.15880E-06   -0.44835E-07  1170   0.175E-03    0.118E-02
RMM:   5    -0.122778032649E+04    0.57985E-06   -0.25589E-07  1167   0.137E-03
 349 F= -.12359326E+04 E0= -.12359226E+04  d E =-.231645E-05  mag=    47.0000
 ZBRENT: can't locate minimum, use default step
 trial-energy change:   -0.000002  1 .order   -0.000002   -0.000002   -0.000002
 step:   0.0407(harm=  0.0409)  dis= 0.00027  next Energy= -1235.932623 (dE=-0.493E-05)
 bond charge predicted
       N       E                     dE             d eps       ncg     rms          rms(c)
DAV:   1    -0.122778031695E+04    0.10129E-04   -0.28170E-03  2088   0.109E-01    0.121E-02
RMM:   2    -0.122778032141E+04   -0.44610E-05   -0.56488E-05  2235   0.145E-02    0.239E-02
RMM:   3    -0.122778032107E+04    0.33847E-06   -0.71499E-06  1600   0.724E-03    0.190E-02
RMM:   4    -0.122778032268E+04   -0.16134E-05   -0.23145E-06  1347   0.368E-03    0.301E-02
RMM:   5    -0.122778031930E+04    0.33802E-05   -0.12145E-06  1242   0.305E-03    0.473E-03
RMM:   6    -0.122778032246E+04   -0.31619E-05   -0.65375E-07  1198   0.202E-03    0.951E-03
RMM:   7    -0.122778032248E+04   -0.19150E-07   -0.50660E-07  1177   0.186E-03
 350 F= -.12359326E+04 E0= -.12359226E+04  d E =-.778947E-05  mag=    47.0000
 curvature:  -0.97 expect dE=-0.195E-03 dE for cont linesearch -0.272E-05
 ZBRENT: increasing intervall
 opt :   0.1018  next Energy= -1235.932637 (dE=-0.186E-04)
 bond charge predicted
       N       E                     dE             d eps       ncg     rms          rms(c)
DAV:   1    -0.122778028646E+04    0.35999E-04   -0.11217E-02  2064   0.218E-01    0.234E-02
RMM:   2    -0.122778030595E+04   -0.19482E-04   -0.22332E-04  2282   0.284E-02    0.459E-02
RMM:   3    -0.122778030797E+04   -0.20260E-05   -0.28215E-05  1992   0.137E-02    0.592E-02
RMM:   4    -0.122778030454E+04    0.34324E-05   -0.11932E-05  1696   0.727E-03    0.507E-02
RMM:   5    -0.122778030429E+04    0.24567E-06   -0.51618E-06  1421   0.583E-03
 351 F= -.12359326E+04 E0= -.12359226E+04  d E =-.858426E-05  mag=    47.0000
 curvature:  -3.84 expect dE=-0.622E-03 dE for cont linesearch -0.120E-05
 ZBRENT: increasing intervall
 opt :   0.2240  next Energy= -1235.932620 (dE=-0.129E-05)
 bond charge predicted
       N       E                     dE             d eps       ncg     rms          rms(c)
DAV:   1    -0.122778017006E+04    0.13448E-03   -0.44957E-02  2064   0.436E-01    0.480E-02
RMM:   2    -0.122778024886E+04   -0.78800E-04   -0.88135E-04  2258   0.564E-02    0.883E-02
RMM:   3    -0.122778026019E+04   -0.11335E-04   -0.11959E-04  2201   0.279E-02    0.927E-02
RMM:   4    -0.122778025396E+04    0.62346E-05   -0.37242E-05  2162   0.126E-02    0.532E-02
RMM:   5    -0.122778025255E+04    0.14021E-05   -0.95167E-06  1563   0.726E-03    0.475E-02
RMM:   6    -0.122778025700E+04   -0.44450E-05   -0.88477E-06  1503   0.625E-03    0.460E-02
RMM:   7    -0.122778025895E+04   -0.19455E-05   -0.68211E-06  1602   0.623E-03    0.147E-02
RMM:   8    -0.122778026766E+04   -0.87154E-05   -0.61770E-06  1497   0.549E-03    0.329E-02
RMM:   9    -0.122778026413E+04    0.35313E-05   -0.32986E-06  1387   0.458E-03    0.854E-03
RMM:  10    -0.122778026608E+04   -0.19502E-05   -0.86924E-07  1230   0.226E-03    0.104E-02
RMM:  11    -0.122778026604E+04    0.43496E-07   -0.43879E-07  1184   0.171E-03
 352 F= -.12359326E+04 E0= -.12359226E+04  d E =-.832989E-05  mag=    47.0000
 curvature:  23.30 expect dE= 0.900E-02 dE for cont linesearch  0.376E-04
 ZBRENT: bracketing found
 ZBRENT: interpolating
 opt :   0.1392  next Energy= -1235.932628 (dE=-0.970E-05)
 bond charge predicted
       N       E                     dE             d eps       ncg     rms          rms(c)
DAV:   1    -0.122778025393E+04    0.12153E-04   -0.21692E-02  2100   0.303E-01    0.317E-02
RMM:   2    -0.122778028682E+04   -0.32894E-04   -0.41862E-04  2271   0.384E-02    0.391E-02
RMM:   3    -0.122778030730E+04   -0.20475E-04   -0.52025E-05  2095   0.190E-02    0.917E-02
RMM:   4    -0.122778028767E+04    0.19629E-04   -0.20236E-05  1903   0.960E-03    0.573E-02
RMM:   5    -0.122778029088E+04   -0.32141E-05   -0.78375E-06  1503   0.713E-03    0.178E-02
RMM:   6    -0.122778029746E+04   -0.65839E-05   -0.34589E-06  1401   0.422E-03    0.263E-02
RMM:   7    -0.122778029698E+04    0.48421E-06   -0.25221E-06  1376   0.394E-03
 353 F= -.12359326E+04 E0= -.12359226E+04  d E =-.128937E-04  mag=    47.0000
 curvature:  -0.69 expect dE=-0.128E-03 dE for cont linesearch -0.504E-06
 ZBRENT: interpolating
 opt :   0.1166  next Energy= -1235.932627 (dE=-0.903E-05)
 bond charge predicted
       N       E                     dE             d eps       ncg     rms          rms(c)
DAV:   1    -0.122778030218E+04   -0.47117E-05   -0.14968E-03  2232   0.819E-02    0.145E-02
RMM:   2    -0.122778031084E+04   -0.86684E-05   -0.42804E-05  2253   0.142E-02    0.488E-02
RMM:   3    -0.122778030329E+04    0.75519E-05   -0.90795E-06  1536   0.744E-03    0.293E-02
RMM:   4    -0.122778030306E+04    0.22952E-06   -0.23220E-06  1336   0.380E-03    0.159E-02
RMM:   5    -0.122778030450E+04   -0.14363E-05   -0.10861E-06  1242   0.264E-03    0.112E-02
RMM:   6    -0.122778030524E+04   -0.73756E-06   -0.55775E-07  1194   0.198E-03
 354 F= -.12359326E+04 E0= -.12359226E+04  d E =-.141285E-04  mag=    47.0000
 curvature:  -0.60 expect dE=-0.974E-04 dE for cont linesearch -0.404E-07
 trial: gam= 0.13417 g(F)=  0.159E-03 g(S)=  0.262E-05 ort = 0.276E-04 (trialstep = 0.315E-01)
 search vector abs. value=  0.374E-03
 bond charge predicted
       N       E                     dE             d eps       ncg     rms          rms(c)
DAV:   1    -0.122778031452E+04   -0.10025E-04   -0.92030E-05  2484   0.220E-02    0.689E-03
RMM:   2    -0.122778031764E+04   -0.31181E-05   -0.50926E-06  1473   0.572E-03    0.323E-02
RMM:   3    -0.122778031376E+04    0.38842E-05   -0.21881E-06  1337   0.397E-03    0.107E-02
RMM:   4    -0.122778031499E+04   -0.12355E-05   -0.49648E-07  1177   0.183E-03    0.978E-03
RMM:   5    -0.122778031513E+04   -0.13464E-06   -0.35260E-07  1169   0.155E-03
 355 F= -.12359326E+04 E0= -.12359226E+04  d E =-.581518E-05  mag=    47.0000
 ZBRENT: can't locate minimum, use default step
 trial-energy change:   -0.000006  1 .order   -0.000005   -0.000005   -0.000005
 step:   0.1259(harm=  0.2782)  dis= 0.00014  next Energy= -1235.932656 (dE=-0.230E-04)
 bond charge predicted
       N       E                     dE             d eps       ncg     rms          rms(c)
DAV:   1    -0.122778033829E+04   -0.23295E-04   -0.81639E-04  2196   0.614E-02    0.882E-03
RMM:   2    -0.122778034059E+04   -0.23037E-05   -0.20351E-05  2138   0.973E-03    0.227E-02
RMM:   3    -0.122778033947E+04    0.11232E-05   -0.32251E-06  1362   0.488E-03    0.157E-02
RMM:   4    -0.122778034015E+04   -0.67834E-06   -0.14191E-06  1250   0.308E-03    0.194E-02
RMM:   5    -0.122778033869E+04    0.14571E-05   -0.79810E-07  1205   0.244E-03    0.880E-03
RMM:   6    -0.122778033986E+04   -0.11679E-05   -0.43541E-07  1180   0.180E-03    0.409E-03
RMM:   7    -0.122778034009E+04   -0.23438E-06   -0.29005E-07  1160   0.141E-03
 356 F= -.12359327E+04 E0= -.12359226E+04  d E =-.185740E-04  mag=    47.0000
 curvature:  -0.19 expect dE=-0.127E-04 dE for cont linesearch -0.530E-05
 ZBRENT: increasing intervall
 opt :   0.3146  next Energy= -1235.932662 (dE=-0.290E-04)
 bond charge predicted
       N       E                     dE             d eps       ncg     rms          rms(c)
DAV:   1    -0.122778036742E+04   -0.27564E-04   -0.32437E-03  2112   0.122E-01    0.155E-02
RMM:   2    -0.122778037270E+04   -0.52829E-05   -0.77705E-05  2329   0.178E-02    0.169E-02
RMM:   3    -0.122778037562E+04   -0.29194E-05   -0.99834E-06  1804   0.864E-03    0.352E-02
RMM:   4    -0.122778037251E+04    0.31163E-05   -0.36644E-06  1410   0.476E-03    0.266E-02
RMM:   5    -0.122778037148E+04    0.10220E-05   -0.16010E-06  1281   0.355E-03    0.936E-03
RMM:   6    -0.122778037450E+04   -0.30199E-05   -0.12341E-06  1255   0.268E-03    0.176E-02
RMM:   7    -0.122778037370E+04    0.80619E-06   -0.94112E-07  1216   0.261E-03
 357 F= -.12359327E+04 E0= -.12359226E+04  d E =-.277769E-04  mag=    47.0000
 curvature:  -0.38 expect dE=-0.250E-04 dE for cont linesearch -0.336E-07
 trial: gam= 0.43735 g(F)=  0.619E-04 g(S)=  0.325E-05 ort = 0.573E-05 (trialstep = 0.881E-01)
 search vector abs. value=  0.142E-03
 bond charge predicted
       N       E                     dE             d eps       ncg     rms          rms(c)
DAV:   1    -0.122778036864E+04    0.58668E-05   -0.27448E-04  2256   0.353E-02    0.857E-03
RMM:   2    -0.122778037246E+04   -0.38233E-05   -0.11520E-05  1739   0.776E-03    0.375E-02
RMM:   3    -0.122778036765E+04    0.48062E-05   -0.35209E-06  1378   0.489E-03    0.138E-02
RMM:   4    -0.122778036888E+04   -0.12231E-05   -0.87808E-07  1212   0.248E-03    0.106E-02
RMM:   5    -0.122778036886E+04    0.13875E-07   -0.41330E-07  1164   0.171E-03
 358 F= -.12359327E+04 E0= -.12359226E+04  d E =-.500105E-05  mag=    47.0000
 trial-energy change:   -0.000005  1 .order   -0.000005   -0.000006   -0.000003
 step:   0.1984(harm=  0.1984)  dis= 0.00013  next Energy= -1235.932667 (dE=-0.671E-05)
 reached required accuracy - stopping structural energy minimisation
