 vasp.5.4.4.18Apr17-6-g9f103f2a35 (build May 21 2019 18:55:53) complex          
  
 executed on           IFC19_impi date 2025.08.30  17:29:01
 running on   24 total cores
 distrk:  each k-point on   24 cores,    1 groups
 distr:  one band on NCORES_PER_BAND=   4 cores,    6 groups


--------------------------------------------------------------------------------------------------------


 INCAR:
 POTCAR:    PAW_PBE O_GW_new 19Mar2012            
 POTCAR:    PAW_PBE C_GW_new 19Mar2012            
 POTCAR:    PAW_PBE H_h_GW 21Apr2008              
 POTCAR:    PAW_PBE Co_GW 31Mar2010               
 POTCAR:    PAW_PBE Li_GW 11May2007               
 POTCAR:    PAW_PBE O_GW_new 19Mar2012            
   SHA256 =  c493eb4e480bc193c6922e0b8c73e7a108f48fca6e73afddd92a880a1c2b3374 O_
   COPYR  = (c) Copyright 19Mar2012 Georg Kresse                                
   COPYR  = This file is part of the software VASP. Any use, copying, and all ot
   COPYR  = If you do not have a valid VASP license, you may not use, copy or di
   VRHFIN =O: s2p4                                                              
   LEXCH  = PE                                                                  
   EATOM  =   432.3788 eV,   31.7789 Ry                                         
                                                                                
   TITEL  = PAW_PBE O_GW_new 19Mar2012                                          
   LULTRA =        F    use ultrasoft PP ?                                      
   IUNSCR =        1    unscreen: 0-lin 1-nonlin 2-no                           
   RPACOR =    0.800    partial core radius                                     
   POMASS =   16.000; ZVAL   =    6.000    mass and valenz                      
   RCORE  =    1.600    outmost cutoff radius                                   
   RWIGS  =    1.600; RWIGS  =    0.847    wigner-seitz radius (au A)           
   ENMAX  =  434.431; ENMIN  =  325.824 eV                                      
   ICORE  =        3    local potential                                         
   LCOR   =        T    correct aug charges                                     
   LPAW   =        T    paw PP                                                  
   EAUG   = 1139.609                                                            
   DEXC   =    0.000                                                            
   RMAX   =    1.629    core radius for proj-oper                               
   RAUG   =    1.300    factor for augmentation sphere                          
   RDEP   =    1.652    radius for radial grids                                 
   RDEPT  =    1.200    core radius for aug-charge                              
                                                                                
   Atomic configuration                                                         
    5 entries                                                                   
     n  l   j            E        occ.                                          
     1  0  0.50      -514.6923   2.0000                                         
     2  0  0.50       -23.9615   2.0000                                         
     2  1  0.50        -9.0305   4.0000                                         
     3  2  1.50        -9.5241   0.0000                                         
     4  3  2.50        -9.5241   0.0000                                         
   Description                                                                  
     l       E           TYP  RCUT    TYP  RCUT                                 
     0    -23.9615316     23  1.150                                             
     0    -25.3221142     23  1.150                                             
     0    244.9048680     23  1.300                                             
     1     -9.0304908     23  1.500                                             
     1     -6.9258396     23  1.500                                             
     1    122.4524340     23  1.500                                             
     2     13.6058260     23  1.500                                             
     2    190.4815640     23  1.600                                             
     3     54.4233040     23  1.400                                             
  local pseudopotential read in
  partial core-charges read in
  partial kinetic energy density read in
  kinetic energy density of atom read in
  atomic valenz-charges read in
  non local Contribution for L=           0  read in
    real space projection operators read in
  non local Contribution for L=           0  read in
    real space projection operators read in
  non local Contribution for L=           0  read in
    real space projection operators read in
  non local Contribution for L=           1  read in
    real space projection operators read in
  non local Contribution for L=           1  read in
    real space projection operators read in
  non local Contribution for L=           1  read in
    real space projection operators read in
  non local Contribution for L=           2  read in
    real space projection operators read in
  non local Contribution for L=           2  read in
    real space projection operators read in
    PAW grid and wavefunctions read in
 
   number of l-projection  operators is LMAX  =           8
   number of lm-projection operators is LMMAX =          22
 
 POTCAR:    PAW_PBE C_GW_new 19Mar2012            
   SHA256 =  fd3f4f69ac51e962ca076bfc50bb68de54373009f6c2495f58fe5f585428a9ad C_
   COPYR  = (c) Copyright 19Mar2012 Georg Kresse                                
   COPYR  = This file is part of the software VASP. Any use, copying, and all ot
   COPYR  = If you do not have a valid VASP license, you may not use, copy or di
   VRHFIN =C: s2p2                                                              
   LEXCH  = PE                                                                  
   EATOM  =   147.1560 eV,   10.8157 Ry                                         
                                                                                
   TITEL  = PAW_PBE C_GW_new 19Mar2012                                          
   LULTRA =        F    use ultrasoft PP ?                                      
   IUNSCR =        1    unscreen: 0-lin 1-nonlin 2-no                           
   RPACOR =    0.800    partial core radius                                     
   POMASS =   12.011; ZVAL   =    4.000    mass and valenz                      
   RCORE  =    1.600    outmost cutoff radius                                   
   RWIGS  =    1.600; RWIGS  =    0.847    wigner-seitz radius (au A)           
   ENMAX  =  413.992; ENMIN  =  310.494 eV                                      
   ICORE  =        3    local potential                                         
   LCOR   =        T    correct aug charges                                     
   LPAW   =        T    paw PP                                                  
   EAUG   = 1213.930                                                            
   DEXC   =    0.000                                                            
   RMAX   =    1.630    core radius for proj-oper                               
   RAUG   =    1.300    factor for augmentation sphere                          
   RDEP   =    1.601    radius for radial grids                                 
   RDEPT  =    1.200    core radius for aug-charge                              
                                                                                
   Atomic configuration                                                         
    5 entries                                                                   
     n  l   j            E        occ.                                          
     1  0  0.50      -273.3789   2.0000                                         
     2  0  0.50       -13.7508   2.0000                                         
     2  1  0.50        -5.2854   2.0000                                         
     3  2  1.50        -5.4423   0.0000                                         
     4  3  2.50        -5.4423   0.0000                                         
   Description                                                                  
     l       E           TYP  RCUT    TYP  RCUT                                 
     0    -13.7508457     23  1.200                                             
     0     -7.5219285     23  1.200                                             
     0    272.1165200     23  1.300                                             
     1     -5.2854382     23  1.500                                             
     1    108.8466080     23  1.500                                             
     2     27.2116520     23  1.500                                             
     2    190.4815640     23  1.600                                             
     3     54.4233040     23  1.400                                             
  local pseudopotential read in
  partial core-charges read in
  partial kinetic energy density read in
  kinetic energy density of atom read in
  atomic valenz-charges read in
  non local Contribution for L=           0  read in
    real space projection operators read in
  non local Contribution for L=           0  read in
    real space projection operators read in
  non local Contribution for L=           0  read in
    real space projection operators read in
  non local Contribution for L=           1  read in
    real space projection operators read in
  non local Contribution for L=           1  read in
    real space projection operators read in
  non local Contribution for L=           2  read in
    real space projection operators read in
  non local Contribution for L=           2  read in
    real space projection operators read in
    PAW grid and wavefunctions read in
 
   number of l-projection  operators is LMAX  =           7
   number of lm-projection operators is LMMAX =          19
 
 POTCAR:    PAW_PBE H_h_GW 21Apr2008              
   SHA256 =  11729b5869c7e48a5e2a30c1e5c3422318a2a0526615c46624c4d60383c74252 H_
   COPYR  = (c) Copyright 21Apr2008 Georg Kresse                                
   COPYR  = This file is part of the software VASP. Any use, copying, and all ot
   COPYR  = If you do not have a valid VASP license, you may not use, copy or di
   VRHFIN =H: ultrasoft test                                                    
   LEXCH  = PE                                                                  
   EATOM  =    12.4884 eV,    0.9179 Ry                                         
                                                                                
   TITEL  = PAW_PBE H_h_GW 21Apr2008                                            
   LULTRA =        F    use ultrasoft PP ?                                      
   IUNSCR =        0    unscreen: 0-lin 1-nonlin 2-no                           
   RPACOR =    0.000    partial core radius                                     
   POMASS =    1.000; ZVAL   =    1.000    mass and valenz                      
   RCORE  =    0.800    outmost cutoff radius                                   
   RWIGS  =    1.100; RWIGS  =    0.582    wigner-seitz radius (au A)           
   ENMAX  =  700.000; ENMIN  =  350.000 eV                                      
   RCLOC  =    0.701    cutoff for local pot                                    
   LCOR   =        T    correct aug charges                                     
   LPAW   =        T    paw PP                                                  
   EAUG   = 1000.000                                                            
   RMAX   =    0.819    core radius for proj-oper                               
   RAUG   =    1.000    factor for augmentation sphere                          
   RDEP   =    0.817    radius for radial grids                                 
   RDEPT  =    1.000    core radius for aug-charge                              
                                                                                
   Atomic configuration                                                         
    3 entries                                                                   
     n  l   j            E        occ.                                          
     1  0  0.50        -6.4927   1.0000                                         
     2  1  0.50        -3.4015   0.0000                                         
     3  2  1.50        13.6058   0.0000                                         
   Description                                                                  
     l       E           TYP  RCUT    TYP  RCUT                                 
     0     -6.4927495     23  0.800                                             
     0      6.8029130     23  0.800                                             
     1     -4.0817478     23  0.800                                             
     1    108.8466080     23  0.800                                             
     2     81.6349560     23  0.800                                             
  local pseudopotential read in
  kinetic energy density of atom read in
  atomic valenz-charges read in
  non local Contribution for L=           0  read in
    real space projection operators read in
  non local Contribution for L=           0  read in
    real space projection operators read in
  non local Contribution for L=           1  read in
    real space projection operators read in
  non local Contribution for L=           1  read in
    real space projection operators read in
  non local Contribution for L=           2  read in
    real space projection operators read in
    PAW grid and wavefunctions read in
 
   number of l-projection  operators is LMAX  =           5
   number of lm-projection operators is LMMAX =          13
 
 POTCAR:    PAW_PBE Co_GW 31Mar2010               
   SHA256 =  651855348dabf60c47b226df2939e31e08af74ec779dd002f81b577334ba8f07 Co
   COPYR  = (c) Copyright 31Mar2010 Georg Kresse                                
   COPYR  = This file is part of the software VASP. Any use, copying, and all ot
   COPYR  = If you do not have a valid VASP license, you may not use, copy or di
   VRHFIN =Co: d8 s1                                                            
   LEXCH  = PE                                                                  
   EATOM  =   813.3669 eV,   59.7808 Ry                                         
                                                                                
   TITEL  = PAW_PBE Co_GW 31Mar2010                                             
   LULTRA =        F    use ultrasoft PP ?                                      
   IUNSCR =        1    unscreen: 0-lin 1-nonlin 2-no                           
   RPACOR =    1.800    partial core radius                                     
   POMASS =   58.933; ZVAL   =    9.000    mass and valenz                      
   RCORE  =    2.300    outmost cutoff radius                                   
   RWIGS  =    2.460; RWIGS  =    1.302    wigner-seitz radius (au A)           
   ENMAX  =  323.400; ENMIN  =  242.550 eV                                      
   RCLOC  =    1.697    cutoff for local pot                                    
   LCOR   =        T    correct aug charges                                     
   LPAW   =        T    paw PP                                                  
   EAUG   =  800.102                                                            
   DEXC   =    0.000                                                            
   RMAX   =    2.360    core radius for proj-oper                               
   RAUG   =    1.300    factor for augmentation sphere                          
   RDEP   =    2.393    radius for radial grids                                 
   RDEPT  =    1.800    core radius for aug-charge                              
                                                                                
   Atomic configuration                                                         
    9 entries                                                                   
     n  l   j            E        occ.                                          
     1  0  0.50     -7587.6674   2.0000                                         
     2  0  0.50      -893.6084   2.0000                                         
     2  1  1.50      -764.5805   6.0000                                         
     3  0  0.50       -97.5973   2.0000                                         
     3  1  1.50       -60.9648   6.0000                                         
     3  2  2.50        -4.2382   8.0000                                         
     4  0  0.50        -4.3746   1.0000                                         
     4  1  1.50        -4.0817   0.0000                                         
     4  3  2.50        -1.3606   0.0000                                         
   Description                                                                  
     l       E           TYP  RCUT    TYP  RCUT                                 
     2     -4.2382343     23  2.100                                             
     2     -5.5988169     23  2.100                                             
     0     -4.3745785     23  2.300                                             
     0     54.4233040     23  2.300                                             
     1     -2.7211652     23  2.300                                             
     1     68.0291300     23  2.300                                             
     3     27.2116520     23  2.300                                             
  local pseudopotential read in
  partial core-charges read in
  partial kinetic energy density read in
  kinetic energy density of atom read in
  atomic valenz-charges read in
  non local Contribution for L=           2  read in
    real space projection operators read in
  non local Contribution for L=           2  read in
    real space projection operators read in
  non local Contribution for L=           0  read in
    real space projection operators read in
  non local Contribution for L=           0  read in
    real space projection operators read in
  non local Contribution for L=           1  read in
    real space projection operators read in
  non local Contribution for L=           1  read in
    real space projection operators read in
  non local Contribution for L=           3  read in
    real space projection operators read in
    PAW grid and wavefunctions read in
 
   number of l-projection  operators is LMAX  =           7
   number of lm-projection operators is LMMAX =          25
 
 POTCAR:    PAW_PBE Li_GW 11May2007               
   SHA256 =  c4b788acc6a1447003eb32b05f4862c502ff3cce9bf6cb6ad4cc41d5ac668445 Li
   COPYR  = (c) Copyright 11May2007 Georg Kresse                                
   COPYR  = This file is part of the software VASP. Any use, copying, and all ot
   COPYR  = If you do not have a valid VASP license, you may not use, copy or di
   VRHFIN =Li: s1p0                                                             
   LEXCH  = PE                                                                  
   EATOM  =     5.3001 eV,    0.3895 Ry                                         
                                                                                
   TITEL  = PAW_PBE Li_GW 11May2007                                             
   LULTRA =        F    use ultrasoft PP ?                                      
   IUNSCR =        1    unscreen: 0-lin 1-nonlin 2-no                           
   RPACOR =    1.500    partial core radius                                     
   POMASS =    7.010; ZVAL   =    1.000    mass and valenz                      
   RCORE  =    2.100    outmost cutoff radius                                   
   RWIGS  =    2.600; RWIGS  =    1.376    wigner-seitz radius (au A)           
   ENMAX  =  112.104; ENMIN  =   84.078 eV                                      
   ICORE  =        2    local potential                                         
   LCOR   =        T    correct aug charges                                     
   LPAW   =        T    paw PP                                                  
   EAUG   =  291.793                                                            
   DEXC   =    0.000                                                            
   RMAX   =    2.149    core radius for proj-oper                               
   RAUG   =    1.300    factor for augmentation sphere                          
   RDEP   =    2.232    radius for radial grids                                 
   RDEPT  =    1.854    core radius for aug-charge                              
                                                                                
   Atomic configuration                                                         
    4 entries                                                                   
     n  l   j            E        occ.                                          
     1  0  0.50       -51.8549   2.0000                                         
     2  0  0.50        -2.8742   1.0000                                         
     2  1  0.50        -2.8708   0.0000                                         
     3  2  1.50        -1.3606   0.0000                                         
   Description                                                                  
     l       E           TYP  RCUT    TYP  RCUT                                 
     0     -2.8742051     23  2.100                                             
     0     54.4233040     23  2.100                                             
     1     -2.8708293     23  2.050                                             
     2     -1.3605826     15  2.050                                             
  local pseudopotential read in
  partial core-charges read in
  partial kinetic energy density read in
  kinetic energy density of atom read in
  atomic valenz-charges read in
  non local Contribution for L=           0  read in
    real space projection operators read in
  non local Contribution for L=           0  read in
    real space projection operators read in
  non local Contribution for L=           1  read in
    real space projection operators read in
    PAW grid and wavefunctions read in
 
   number of l-projection  operators is LMAX  =           3
   number of lm-projection operators is LMMAX =           5
 
 Optimization of the real space projectors (new method)

 maximal supplied QI-value         = 23.62
 optimisation between [QCUT,QGAM] = [ 11.57, 23.15] = [ 37.52,150.06] Ry 
 Optimized for a Real-space Cutoff    1.53 Angstroem

   l    n(q)    QCUT    max X(q) W(low)/X(q) W(high)/X(q)  e(spline) 
   0     11    11.575   116.464    0.19E-03    0.50E-03    0.68E-05
   0     11    11.575   116.329    0.18E-03    0.48E-03    0.66E-05
   0     11    11.575     0.942    0.91E-04    0.25E-03    0.30E-05
   1     10    11.575    68.203    0.23E-03    0.52E-03    0.69E-05
   1     10    11.575    60.250    0.22E-03    0.51E-03    0.68E-05
   1     10    11.575     2.381    0.21E-03    0.47E-03    0.62E-05
   2     10    11.575     2.237    0.20E-04    0.44E-04    0.41E-06
   2     10    11.575     2.486    0.52E-04    0.84E-04    0.58E-06
 Optimization of the real space projectors (new method)

 maximal supplied QI-value         = 23.62
 optimisation between [QCUT,QGAM] = [ 11.57, 23.15] = [ 37.52,150.06] Ry 
 Optimized for a Real-space Cutoff    1.40 Angstroem

   l    n(q)    QCUT    max X(q) W(low)/X(q) W(high)/X(q)  e(spline) 
   0     10    11.575   214.472    0.12E-03    0.51E-03    0.36E-05
   0     10    11.575   163.224    0.12E-03    0.51E-03    0.36E-05
   0     10    11.575     0.672    0.22E-03    0.83E-03    0.56E-05
   1      9    11.575     2.978    0.13E-04    0.16E-04    0.12E-06
   1      9    11.575     2.423    0.91E-04    0.11E-03    0.33E-06
   2      9    11.575     2.026    0.29E-04    0.65E-04    0.23E-06
   2      9    11.575     2.119    0.11E-03    0.87E-04    0.33E-06
 Optimization of the real space projectors (new method)

 maximal supplied QI-value         = 47.24
 optimisation between [QCUT,QGAM] = [ 11.34, 23.15] = [ 36.00,150.06] Ry 
 Optimized for a Real-space Cutoff    1.49 Angstroem

   l    n(q)    QCUT    max X(q) W(low)/X(q) W(high)/X(q)  e(spline) 
   0     10    11.338    34.360    0.20E-03    0.15E-03    0.16E-05
   0     10    11.338    16.963    0.19E-03    0.15E-03    0.15E-05
   1     10    11.338     2.770    0.91E-04    0.81E-03    0.22E-05
   1     10    11.338     2.976    0.71E-04    0.63E-03    0.17E-05
   2      9    11.338     1.668    0.23E-03    0.90E-03    0.16E-05
 Optimization of the real space projectors (new method)

 maximal supplied QI-value         = 16.25
 optimisation between [QCUT,QGAM] = [ 11.54, 23.24] = [ 37.28,151.24] Ry 
 Optimized for a Real-space Cutoff    1.45 Angstroem

   l    n(q)    QCUT    max X(q) W(low)/X(q) W(high)/X(q)  e(spline) 
   2      9    11.539    96.822    0.69E-04    0.12E-03    0.22E-06
   2      9    11.539    93.856    0.69E-04    0.12E-03    0.22E-06
   0     10    11.539    16.889    0.42E-04    0.32E-04    0.15E-06
   0     10    11.539     8.427    0.27E-04    0.29E-04    0.14E-06
   1     10    11.539     4.887    0.81E-04    0.12E-03    0.11E-06
   1     10    11.539     3.463    0.48E-04    0.74E-04    0.79E-07
   3      9    11.539     4.442    0.74E-04    0.23E-03    0.16E-06
 Optimization of the real space projectors (new method)

 maximal supplied QI-value         = 17.95
 optimisation between [QCUT,QGAM] = [ 11.67, 23.34] = [ 38.13,152.52] Ry 
 Optimized for a Real-space Cutoff    1.25 Angstroem

   l    n(q)    QCUT    max X(q) W(low)/X(q) W(high)/X(q)  e(spline) 
   0      9    11.669    19.159    0.13E-03    0.16E-04    0.63E-07
   0      9    11.669     4.920    0.87E-04    0.89E-05    0.43E-07
   1      8    11.669     7.384    0.16E-03    0.20E-03    0.89E-07
  PAW_PBE O_GW_new 19Mar2012            :
 energy of atom  1       EATOM= -432.3788
 kinetic energy error for atom=    0.0246 (will be added to EATOM!!)
  PAW_PBE C_GW_new 19Mar2012            :
 energy of atom  2       EATOM= -147.1560
 kinetic energy error for atom=    0.0071 (will be added to EATOM!!)
  PAW_PBE H_h_GW 21Apr2008              :
 energy of atom  3       EATOM=  -12.4884
 kinetic energy error for atom=    0.0295 (will be added to EATOM!!)
  PAW_PBE Co_GW 31Mar2010               :
 energy of atom  4       EATOM= -813.3669
 kinetic energy error for atom=    0.0067 (will be added to EATOM!!)
  PAW_PBE Li_GW 11May2007               :
 energy of atom  5       EATOM=   -5.3001
 kinetic energy error for atom=    0.0000 (will be added to EATOM!!)
 
 
 POSCAR: O  C  H  Co Li                          
  positions in direct lattice
  No initial velocities read in
 exchange correlation table for  LEXCH =        8
   RHO(1)=    0.500       N(1)  =     2000
   RHO(2)=  100.500       N(2)  =     4000

 VTST: version 3.2, (02/03/18)

 CHAIN: initializing optimizer
 
 OPT: Using VASP Conjugate-Gradient optimizer
 CHAIN: Read ICHAIN            0
 
 POSCAR: O  C  H  Co Li                          
  positions in direct lattice
  No initial velocities read in
 


--------------------------------------------------------------------------------------------------------


 ion  position               nearest neighbor table
   1  0.062  0.259  0.316-  55 1.16 148 1.74  56 1.90 139 1.95
   2  0.034  0.302  0.934-  57 1.09 151 1.79 148 1.97  58 1.97
   3  0.107  0.268  0.720-  57 1.24 139 1.81
   4  0.702  0.047  0.316-  59 1.23 150 1.88 140 2.00
   5  0.683  0.023  0.932-  61 1.14 150 1.93   6 2.02 147 2.02
   6  0.647  0.098  0.722-  61 1.21 140 1.96   5 2.02
   7  0.035  0.400  0.656-  63 1.20 139 1.89 151 1.98
   8  0.245  0.702  0.349-  65 1.29 138 1.76 152 2.04
   9  0.299  0.669  0.996-  67 1.24 149 1.90 152 1.97
  10  0.269  0.620  0.802-  67 1.24 138 1.76
  11  0.581  0.030  0.646-  69 1.27 147 1.84 140 1.95
  12  0.305  0.054  0.373-  71 1.09 155 1.80 142 1.95  72 1.97
  13  0.232  0.092  0.590-  71 1.24 143 1.80
  14  0.277  0.098  0.994-  73 1.16 142 1.75  74 1.90 143 1.95
  15  0.694  0.274  0.399-  75 1.12 144 1.79  16 1.87 153 1.93
  16  0.765  0.188  0.512-  75 1.11 158 1.76  15 1.87
  17  0.982  0.648  0.738-  77 1.13 154 1.92  18 2.00 141 2.02
  18  0.024  0.573  0.946-  77 1.21 146 1.95  17 2.00
  19  0.669  0.257  0.006-  79 1.25 144 1.77 145 1.93
  20  0.039  0.662  0.407-  81 1.22 154 1.86 146 2.01
  21  0.072  0.703  0.621-  81 1.24 141 1.94
  22  0.374  0.994  0.705-  83 1.22 143 1.85 155 2.01
  23  0.410  0.031  0.920-  83 1.24 142 1.93
  24  0.084  0.646  0.028-  85 1.27 141 1.87 146 1.95
  25  0.693  0.954  0.599-  87 1.09 140 1.82 147 1.94  88 1.99
  26  0.768  0.918  0.391-  87 1.24 150 1.83
  27  0.719  0.911  0.985-  89 1.16 147 1.77  90 1.91 150 1.93
  28  0.341  0.720  0.531-  91 1.11 149 1.84  29 1.92 152 2.52
  29  0.284  0.800  0.359-  91 1.19 152 1.87  28 1.92
  30  0.022  0.372  0.269-  93 1.13 139 1.90  31 1.99 148 2.04
  31  0.979  0.447  0.063-  93 1.21 151 1.95  30 1.99
  32  0.323  0.753  0.943-  95 1.24 149 1.91 152 2.00
  33  0.962  0.360  0.601-  97 1.23 139 1.88 151 2.01
  34  0.931  0.316  0.394-  97 1.24 148 1.96
  35  0.624  0.014  0.266-  99 1.22 150 1.85 140 1.99
  36  0.587  0.977  0.052-  99 1.24 147 1.93
  37  0.921  0.374  0.989- 101 1.28 148 1.83 151 1.96
  38  0.941  0.760  0.686- 103 1.16 141 1.76 104 1.90 154 1.94
  39  0.969  0.718  0.071- 105 1.10 146 1.80 141 1.94 106 1.99
  40  0.894  0.751  0.278- 105 1.24 154 1.83
  41  0.296  0.962  0.653- 107 1.22 143 1.89 155 1.98
  42  0.315  0.985  0.037- 109 1.15 143 1.90  43 2.01 142 2.03
  43  0.350  0.910  0.246- 109 1.21 155 1.97  42 2.01
  44  0.969  0.620  0.352- 111 1.20 154 1.88 146 1.97
  45  0.780  0.287  0.703- 113 1.31 158 1.68 153 1.82 145 2.08
  46  0.708  0.348  0.019- 115 1.21 157 1.58 145 1.84
  47  0.758  0.360  0.265- 115 1.27 156 1.66 153 2.03
  48  0.417  0.978  0.324- 117 1.27 142 1.84 155 1.95
  49  0.597  0.403  0.236- 119 1.25 144 1.68 157 1.99
  50  0.633  0.464  0.217- 119 1.22 156 1.71 157 1.86
  51  0.651  0.411  0.486- 119 1.24 153 1.66 156 1.96
  52  0.836  0.137  0.017- 121 0.97 145 2.41
  53  0.887  0.119  0.628- 120 1.11 158 1.68
  54  0.868  0.041  0.675- 120 1.09
  55  0.113  0.222  0.229-   1 1.16  56 1.21  58 1.40  72 2.01 148 2.50
  56  0.157  0.178  0.347- 122 1.07  72 1.18  55 1.21   1 1.90  71 1.99
  57  0.088  0.266  0.888-   2 1.09   3 1.24  58 1.30  74 2.00 151 2.51
  58  0.128  0.223  0.030-  74 1.18  57 1.30  55 1.40   2 1.97  73 2.01
  59  0.695  0.096  0.228-   4 1.23  60 1.33  62 1.38
  60  0.709  0.132  0.340- 123 1.03  76 1.27  59 1.33
  61  0.667  0.077  0.889-   5 1.14   6 1.21  62 1.41
  62  0.675  0.114  0.033-  80 1.27  59 1.38  61 1.41
  63  0.019  0.452  0.573-   7 1.20  64 1.32  94 1.38
  64  0.018  0.495  0.695- 124 1.05  78 1.24  63 1.32
  65  0.206  0.687  0.269-   8 1.29  66 1.30  68 1.37 138 2.40
  66  0.158  0.695  0.378- 125 1.05  65 1.30  82 1.33 138 2.56
  67  0.264  0.648  0.960-  10 1.24   9 1.24  68 1.33
  68  0.214  0.661  0.084-  86 1.33  67 1.33  65 1.37
  69  0.542  0.017  0.560-  11 1.27  70 1.32 100 1.40
  70  0.498  0.019  0.678- 126 1.06  84 1.31  69 1.32
  71  0.251  0.092  0.421-  12 1.09  13 1.24  72 1.30  56 1.99 155 2.52
  72  0.212  0.136  0.279-  56 1.18  71 1.30  73 1.40  12 1.97  55 2.01
  73  0.226  0.136  0.080-  14 1.16  74 1.22  72 1.40  58 2.01 142 2.51
  74  0.183  0.180  0.962- 127 1.07  58 1.18  73 1.22  14 1.90  57 2.00
  75  0.722  0.216  0.401-  16 1.11  15 1.12  76 1.41 144 2.46 158 2.65
  76  0.701  0.186  0.273-  60 1.27  79 1.35  75 1.41
  77  0.003  0.593  0.779-  17 1.13  18 1.21  78 1.40
  78  0.001  0.553  0.633-  64 1.24 111 1.38  77 1.40
  79  0.677  0.206  0.087-  19 1.25  80 1.33  76 1.35 144 2.35
  80  0.665  0.169  0.971- 128 1.04  62 1.27  79 1.33
  81  0.073  0.683  0.453-  20 1.22  21 1.24  82 1.38
  82  0.117  0.679  0.313-  66 1.33  81 1.38  85 1.40
  83  0.411  0.011  0.752-  22 1.22  23 1.24  84 1.39
  84  0.455  0.006  0.611-  70 1.31  83 1.39 117 1.40
  85  0.122  0.658  0.119-  24 1.27  86 1.29  82 1.40
  86  0.171  0.648  0.012- 129 1.05  85 1.29  68 1.33
  87  0.748  0.918  0.559-  25 1.09  26 1.24  88 1.31 104 2.00 140 2.52
  88  0.788  0.877  0.706- 104 1.18  87 1.31  89 1.40  25 1.99 103 2.02
  89  0.772  0.875  0.903-  27 1.16  90 1.22  88 1.40 106 2.02 147 2.52
  90  0.816  0.833  0.026- 130 1.07 106 1.18  89 1.22  27 1.91 105 2.01
  91  0.311  0.777  0.516-  28 1.11  29 1.19  92 1.40 149 2.50
  92  0.311  0.816  0.669- 108 1.27  95 1.38  91 1.40
  93  0.000  0.427  0.229-  30 1.13  31 1.21  94 1.40
  94  0.002  0.467  0.375- 112 1.24  63 1.38  93 1.40
  95  0.321  0.802  0.869-  32 1.24  96 1.33  92 1.38
  96  0.327  0.841  0.995- 131 1.05 110 1.27  95 1.33
  97  0.930  0.337  0.561-  33 1.23  34 1.24  98 1.40
  98  0.890  0.337  0.708- 114 1.34  97 1.40 101 1.40
  99  0.587  0.997  0.219-  35 1.22  36 1.24 100 1.39
 100  0.543  0.002  0.361- 118 1.31  99 1.39  69 1.40
 101  0.886  0.356  0.903-  37 1.28 102 1.32  98 1.40
 102  0.841  0.358  0.020- 132 1.06 101 1.32 116 1.33
 103  0.889  0.796  0.768-  38 1.16 104 1.22 106 1.40  88 2.02 141 2.52
 104  0.845  0.838  0.646- 133 1.07  88 1.18 103 1.22  38 1.90  87 2.00
 105  0.913  0.752  0.112-  39 1.10  40 1.24 106 1.31  90 2.01 146 2.52
 106  0.873  0.794  0.965-  90 1.18 105 1.31 103 1.40  39 1.99  89 2.02
 107  0.306  0.911  0.735-  41 1.22 108 1.33 110 1.39
 108  0.302  0.871  0.609- 134 1.05  92 1.27 107 1.33
 109  0.329  0.931  0.080-  42 1.15  43 1.21 110 1.42
 110  0.320  0.895  0.934-  96 1.27 107 1.39 109 1.42
 111  0.985  0.568  0.436-  44 1.20 112 1.32  78 1.38
 112  0.985  0.524  0.314- 135 1.05  94 1.24 111 1.32
 113  0.809  0.315  0.768- 114 1.31  45 1.31 116 1.38
 114  0.853  0.315  0.650- 136 1.06 113 1.31  98 1.34
 115  0.754  0.348  0.086-  46 1.21  47 1.27 116 1.36 157 2.41 145 2.51 156 2.56
 116  0.801  0.340  0.957- 102 1.33 115 1.36 113 1.38
 117  0.455  0.991  0.411-  48 1.27 118 1.32  84 1.40
 118  0.500  0.990  0.293- 137 1.06 100 1.31 117 1.32
 119  0.625  0.427  0.317-  50 1.22  51 1.24  49 1.25 156 2.08 157 2.19 153 2.37
 120  0.877  0.080  0.652-  54 1.09  53 1.11 158 2.42
 121  0.801  0.187  0.990-  52 0.97 145 1.44 158 2.57
 122  0.145  0.177  0.497-  56 1.07
 123  0.727  0.115  0.482-  60 1.03
 124  0.032  0.483  0.844-  64 1.05
 125  0.150  0.717  0.519-  66 1.05
 126  0.497  0.031  0.828-  70 1.06
 127  0.195  0.181  0.812-  74 1.07
 128  0.648  0.185  0.827-  80 1.04
 129  0.176  0.629  0.868-  86 1.05
 130  0.803  0.831  0.174-  90 1.07
 131  0.337  0.828  0.145-  96 1.05
 132  0.838  0.375  0.166- 102 1.06
 133  0.858  0.839  0.498- 104 1.07
 134  0.292  0.884  0.459- 108 1.05
 135  0.971  0.537  0.165- 112 1.05
 136  0.859  0.296  0.505- 114 1.06
 137  0.501  0.977  0.143- 118 1.06
 138  0.266  0.659  0.579-   8 1.76  10 1.76 149 2.31  65 2.40  66 2.56
 139  0.053  0.323  0.514-   3 1.81  33 1.88   7 1.89  30 1.90   1 1.95 151 2.76 148 2.81
 140  0.643  0.044  0.514-  25 1.82  11 1.95   6 1.96  35 1.99   4 2.00  87 2.52 150 2.76 147 2.81

 141  0.018  0.701  0.828-  38 1.76  24 1.87  39 1.94  21 1.94  17 2.02 103 2.52 146 2.79 154 2.84

 142  0.354  0.035  0.128-  14 1.75  48 1.84  23 1.93  12 1.95  42 2.03  73 2.51 155 2.79 143 2.79

 143  0.284  0.036  0.795-  13 1.80  22 1.85  41 1.89  42 1.90  14 1.95 155 2.79 142 2.79
 144  0.632  0.318  0.200-  49 1.68  19 1.77  15 1.79  79 2.35  75 2.46 157 2.78 145 2.86 153 3.06

 145  0.745  0.259  0.934- 121 1.44  46 1.84  19 1.93  45 2.08  52 2.41 115 2.51 158 2.54 144 2.86
                           157 3.12
 146  0.023  0.629  0.158-  39 1.80  18 1.95  24 1.95  44 1.97  20 2.01 105 2.52 154 2.74 141 2.79

 147  0.644  0.973  0.844-  27 1.77  11 1.84  36 1.93  25 1.94   5 2.02  89 2.52 140 2.81 150 2.81

 148  0.985  0.318  0.182-   1 1.74  37 1.83  34 1.96   2 1.97  30 2.04  55 2.50 151 2.81 139 2.81

 149  0.323  0.693  0.762-  28 1.84   9 1.90  32 1.91 138 2.31  91 2.50 152 3.02
 150  0.714  0.972  0.180-  26 1.83  35 1.85   4 1.88  27 1.93   5 1.93 140 2.76 147 2.81
 151  0.980  0.391  0.852-   2 1.79  31 1.95  37 1.96   7 1.98  33 2.01  57 2.51 139 2.76 148 2.81

 152  0.292  0.734  0.189-  29 1.87   9 1.97  32 2.00   8 2.04  28 2.52 149 3.02
 153  0.725  0.329  0.483-  51 1.66  45 1.82  15 1.93  47 2.03 119 2.37 156 2.50 158 2.61 144 3.06

 154  0.950  0.697  0.490-  40 1.83  20 1.86  44 1.88  17 1.92  38 1.94 146 2.74 141 2.84
 155  0.355  0.964  0.455-  12 1.80  48 1.95  43 1.97  41 1.98  22 2.01  71 2.52 143 2.79 142 2.79

 156  0.703  0.439  0.361-  47 1.66  50 1.71  51 1.96 119 2.08 153 2.50 115 2.56 157 3.21
 157  0.631  0.419  0.996-  46 1.58  50 1.86  49 1.99 119 2.19 115 2.41 144 2.78 145 3.12 156 3.21

 158  0.820  0.204  0.629-  53 1.68  45 1.68  16 1.76 120 2.42 145 2.54 121 2.57 153 2.61  75 2.65

 

IMPORTANT INFORMATION: All symmetrisations will be switched off!
NOSYMM: (Re-)initialisation of all symmetry stuff for point group C_1.

 
 
 KPOINTS: mof                                     

Automatic generation of k-mesh.
Space group operators:
 irot       det(A)        alpha          n_x          n_y          n_z        tau_x        tau_y        tau_z
    1     1.000000     0.000000     1.000000     0.000000     0.000000     0.000000     0.000000     0.000000
 
 Subroutine IBZKPT returns following result:
 ===========================================
 
 Found      1 irreducible k-points:
 
 Following reciprocal coordinates:
            Coordinates               Weight
  0.000000  0.000000  0.000000      1.000000
 
 Following cartesian coordinates:
            Coordinates               Weight
  0.000000  0.000000  0.000000      1.000000
 


--------------------------------------------------------------------------------------------------------




 Dimension of arrays:
   k-points           NKPTS =      1   k-points in BZ     NKDIM =      1   number of bands    NBANDS=    498
   number of dos      NEDOS =    301   number of ions     NIONS =    158
   non local maximal  LDIM  =      8   non local SUM 2l+1 LMDIM =     25
   total plane-waves  NPLWV = ******
   max r-space proj   IRMAX =   8554   max aug-charges    IRDMAX=  22012
   dimension x,y,z NGX =   180 NGY =  180 NGZ =   54
   dimension x,y,z NGXF=   360 NGYF=  360 NGZF=  108
   support grid    NGXF=   360 NGYF=  360 NGZF=  108
   ions per type =              54  67  16  18   3
   NGX,Y,Z   is equivalent  to a cutoff of  12.48, 12.48, 13.20 a.u.
   NGXF,Y,Z  is equivalent  to a cutoff of  24.97, 24.95, 26.40 a.u.

 SYSTEM =  Co–organic framework                  
 POSCAR =  O  C  H  Co Li                          

 Startparameter for this run:
   NWRITE =      2    write-flag & timer
   PREC   = accura    normal or accurate (medium, high low for compatibility)
   ISTART =      0    job   : 0-new  1-cont  2-samecut
   ICHARG =      2    charge: 1-file 2-atom 10-const
   ISPIN  =      2    spin polarized calculation?
   LNONCOLLINEAR =      F non collinear calculations
   LSORBIT =      F    spin-orbit coupling
   INIWAV =      1    electr: 0-lowe 1-rand  2-diag
   LASPH  =      F    aspherical Exc in radial PAW
   METAGGA=      F    non-selfconsistent MetaGGA calc.

 Electronic Relaxation 1
   ENCUT  =  520.0 eV  38.22 Ry    6.18 a.u.  44.57 44.60 12.65*2*pi/ulx,y,z
   ENINI  =  520.0     initial cutoff
   ENAUG  = 1213.9 eV  augmentation charge cutoff
   NELM   =    120;   NELMIN=  5; NELMDL=  0     # of ELM steps 
   EDIFF  = 0.1E-05   stopping-criterion for ELM
   LREAL  =      T    real-space projection
   NLSPLINE    = F    spline interpolate recip. space projectors
   LCOMPAT=      F    compatible to vasp.4.4
   GGA_COMPAT  = T    GGA compatible to vasp.4.4-vasp.4.6
   LMAXPAW     = -100 max onsite density
   LMAXMIX     =    2 max onsite mixed and CHGCAR
   VOSKOWN=      0    Vosko Wilk Nusair interpolation
   ROPT   =   -0.00025  -0.00025  -0.00025  -0.00025
   ROPT   =   -0.00025
 Ionic relaxation
   EDIFFG = -.5E-02   stopping-criterion for IOM
   NSW    =   1000    number of steps for IOM
   NBLOCK =      1;   KBLOCK =   1000    inner block; outer block 
   IBRION =      2    ionic relax: 0-MD 1-quasi-New 2-CG
   NFREE  =      1    steps in history (QN), initial steepest desc. (CG)
   ISIF   =      2    stress and relaxation
   IWAVPR =     11    prediction:  0-non 1-charg 2-wave 3-comb
   ISYM   =      0    0-nonsym 1-usesym 2-fastsym
   LCORR  =      T    Harris-Foulkes like correction to forces

   POTIM  = 0.5000    time-step for ionic-motion
   TEIN   =    0.0    initial temperature
   TEBEG  =    0.0;   TEEND  =   0.0 temperature during run
   SMASS  =  -3.00    Nose mass-parameter (am)
   estimated Nose-frequenzy (Omega)   =  0.10E-29 period in steps =****** mass=  -0.131E-25a.u.
   SCALEE = 1.0000    scale energy and forces
   NPACO  =    256;   APACO  = 16.0  distance and # of slots for P.C.
   PSTRESS=    0.0 pullay stress

  Mass of Ions in am
   POMASS =  16.00 12.01  1.00 58.93  7.01
  Ionic Valenz
   ZVAL   =   6.00  4.00  1.00  9.00  1.00
  Atomic Wigner-Seitz radii
   RWIGS  =  -1.00 -1.00 -1.00 -1.00 -1.00
  virtual crystal weights 
   VCA    =   1.00  1.00  1.00  1.00  1.00
   NELECT =     773.0000    total number of electrons
   NUPDOWN=      -1.0000    fix difference up-down

 DOS related values:
   EMIN   =  10.00;   EMAX   =-10.00  energy-range for DOS
   EFERMI =   0.00
   ISMEAR =     0;   SIGMA  =   0.05  broadening in eV -4-tet -1-fermi 0-gaus

 Electronic relaxation 2 (details)
   IALGO  =     68    algorithm
   LDIAG  =      T    sub-space diagonalisation (order eigenvalues)
   LSUBROT=      F    optimize rotation matrix (better conditioning)
   TURBO    =      0    0=normal 1=particle mesh
   IRESTART =      0    0=no restart 2=restart with 2 vectors
   NREBOOT  =      0    no. of reboots
   NMIN     =      0    reboot dimension
   EREF     =   0.00    reference energy to select bands
   IMIX   =      4    mixing-type and parameters
     AMIX     =   0.40;   BMIX     =  1.00
     AMIX_MAG =   1.60;   BMIX_MAG =  1.00
     AMIN     =   0.10
     WC   =   100.;   INIMIX=   1;  MIXPRE=   1;  MAXMIX= -45

 Intra band minimization:
   WEIMIN = 0.0010     energy-eigenvalue tresh-hold
   EBREAK =  0.50E-09  absolut break condition
   DEPER  =   0.30     relativ break condition  

   TIME   =   0.40     timestep for ELM

  volume/ion in A,a.u.               =      19.68       132.81
  Fermi-wavevector in a.u.,A,eV,Ry     =   1.029373  1.945233 14.416847  1.059608
  Thomas-Fermi vector in A             =   2.163417
 
 Write flags
   LWAVE        =      F    write WAVECAR
   LDOWNSAMPLE  =      F    k-point downsampling of WAVECAR
   LCHARG       =      T    write CHGCAR
   LVTOT        =      F    write LOCPOT, total local potential
   LVHAR        =      F    write LOCPOT, Hartree potential only
   LELF         =      F    write electronic localiz. function (ELF)
   LORBIT       =      0    0 simple, 1 ext, 2 COOP (PROOUT), +10 PAW based schemes


 Dipole corrections
   LMONO  =      F    monopole corrections only (constant potential shift)
   LDIPOL =      F    correct potential (dipole corrections)
   IDIPOL =      0    1-x, 2-y, 3-z, 4-all directions 
   EPSILON=  1.0000000 bulk dielectric constant

 Exchange correlation treatment:
   GGA     =    --    GGA type
   LEXCH   =     8    internal setting for exchange type
   VOSKOWN=      0    Vosko Wilk Nusair interpolation
   LHFCALC =     F    Hartree Fock is set to
   LHFONE  =     F    Hartree Fock one center treatment
   AEXX    =    0.0000 exact exchange contribution

 Linear response parameters
   LEPSILON=     F    determine dielectric tensor
   LRPA    =     F    only Hartree local field effects (RPA)
   LNABLA  =     F    use nabla operator in PAW spheres
   LVEL    =     F    velocity operator in full k-point grid
   LINTERFAST=   F  fast interpolation
   KINTER  =     0    interpolate to denser k-point grid
   CSHIFT  =0.1000    complex shift for real part using Kramers Kronig
   OMEGAMAX=  -1.0    maximum frequency
   DEG_THRESHOLD= 0.2000000E-02 threshold for treating states as degnerate
   RTIME   =   -0.100 relaxation time in fs
  (WPLASMAI=    0.000 imaginary part of plasma frequency in eV, 0.658/RTIME)
   DFIELD  = 0.0000000 0.0000000 0.0000000 field for delta impulse in time
 
 Orbital magnetization related:
   ORBITALMAG=     F  switch on orbital magnetization
   LCHIMAG   =     F  perturbation theory with respect to B field
   DQ        =  0.001000  dq finite difference perturbation B field
   LLRAUG    =     F  two centre corrections for induced B field



--------------------------------------------------------------------------------------------------------


 conjugate gradient relaxation of ions
 charge density and potential will be updated during run
 spin polarized calculation
 RMM-DIIS sequential band-by-band and
  variant of blocked Davidson during initial phase
 perform sub-space diagonalisation
    before iterative eigenvector-optimisation
 modified Broyden-mixing scheme, WC =      100.0
 initial mixing is a Kerker type mixing with AMIX =  0.4000 and BMIX =      1.0000
 Hartree-type preconditioning will be used
 using additional bands          111
 real space projection scheme for non local part
 use partial core corrections
 calculate Harris-corrections to forces 
   (improved forces if not selfconsistent)
 use gradient corrections 
 use of overlap-Matrix (Vanderbilt PP)
 Gauss-broadening in eV      SIGMA  =   0.05


--------------------------------------------------------------------------------------------------------


  energy-cutoff  :      520.00
  volume of cell :     3109.47
      direct lattice vectors                 reciprocal lattice vectors
    23.926119810  1.427022632 -0.170242355     0.043543936 -0.029268037  0.000418735
    13.380797750 19.907572241  0.007062058    -0.003123687  0.052331839 -0.000346490
    -0.036604918  0.042847088  6.801368406     0.001093174 -0.000786934  0.147040077

  length of vectors
    23.969242484 23.986605238  6.801601869     0.052467778  0.052426128  0.147046246


 
 k-points in units of 2pi/SCALE and weight: mof                                     
   0.00000000  0.00000000  0.00000000       1.000
 
 k-points in reciprocal lattice and weights: mof                                     
   0.00000000  0.00000000  0.00000000       1.000
 
 position of ions in fractional coordinates (direct lattice) 
   0.06231488  0.25941773  0.31609372
   0.03351834  0.30187357  0.93395821
   0.10706826  0.26783744  0.72044962
   0.70157100  0.04712467  0.31560592
   0.68333889  0.02298840  0.93175367
   0.64694182  0.09761861  0.72203650
   0.03531320  0.39973246  0.65647635
   0.24465836  0.70188324  0.34892391
   0.29932078  0.66856265  0.99628267
   0.26949036  0.61977402  0.80218389
   0.58054751  0.02960036  0.64648422
   0.30477190  0.05373125  0.37339594
   0.23196357  0.09232039  0.58955775
   0.27742268  0.09798028  0.99354639
   0.69439927  0.27447336  0.39868655
   0.76548715  0.18753220  0.51214868
   0.98210257  0.64774005  0.73752314
   0.02441694  0.57325011  0.94609638
   0.66895682  0.25717479  0.00625527
   0.03897438  0.66239273  0.40688752
   0.07176854  0.70306959  0.62099911
   0.37368891  0.99440933  0.70545732
   0.41003478  0.03144902  0.91964729
   0.08359197  0.64605052  0.02774847
   0.69281985  0.95354206  0.59871268
   0.76774327  0.91788107  0.39134336
   0.71947105  0.91068034  0.98534188
   0.34059029  0.71974037  0.53127301
   0.28384969  0.79967566  0.35867854
   0.02177227  0.37202047  0.26892239
   0.97905801  0.44702621  0.06268692
   0.32296959  0.75345575  0.94312489
   0.96249558  0.35998337  0.60118201
   0.93135979  0.31626009  0.39354503
   0.62389789  0.01376910  0.26552955
   0.58745393  0.97672946  0.05175887
   0.92065751  0.37376309  0.98885075
   0.94123122  0.76028653  0.68570346
   0.96891828  0.71836855  0.07096360
   0.89415038  0.75065682  0.27831244
   0.29632956  0.96162863  0.65295005
   0.31450632  0.98462857  0.03736903
   0.34987443  0.91002192  0.24570133
   0.96860541  0.61981640  0.35158895
   0.77998285  0.28720974  0.70283728
   0.70768877  0.34766309  0.01924731
   0.75827116  0.35991153  0.26529201
   0.41714179  0.97832897  0.32446460
   0.59654272  0.40312628  0.23640124
   0.63263725  0.46415252  0.21651727
   0.65065217  0.41074213  0.48590474
   0.83597356  0.13731197  0.01719239
   0.88748192  0.11864020  0.62826362
   0.86811868  0.04090300  0.67516006
   0.11349607  0.22209641  0.22876572
   0.15660132  0.17830356  0.34674613
   0.08806709  0.26629043  0.88800807
   0.12775843  0.22279679  0.02957749
   0.69489217  0.09573865  0.22761502
   0.70890267  0.13162727  0.33951211
   0.66729428  0.07707657  0.88887648
   0.67528509  0.11387110  0.03295878
   0.01898865  0.45208590  0.57322654
   0.01829308  0.49534114  0.69486643
   0.20588637  0.68721727  0.26865221
   0.15761073  0.69543752  0.37847357
   0.26351701  0.64813949  0.96041516
   0.21437271  0.66073089  0.08352542
   0.54223128  0.01697023  0.55977126
   0.49791265  0.01860154  0.67786070
   0.25109215  0.09185748  0.42055687
   0.21215718  0.13573401  0.27907241
   0.22638534  0.13611770  0.07985461
   0.18343698  0.18031603  0.96203073
   0.72225714  0.21646500  0.40130050
   0.70147312  0.18558694  0.27346136
   0.00326927  0.59255114  0.77931382
   0.00135828  0.55253846  0.63348587
   0.67673245  0.20596086  0.08698178
   0.66497294  0.16939997  0.97142456
   0.07344382  0.68266512  0.45266697
   0.11686682  0.67915238  0.31273970
   0.41081962  0.01121783  0.75195207
   0.45500803  0.00601126  0.61066113
   0.12186202  0.65784735  0.11856118
   0.17118359  0.64829336  0.01151515
   0.74792742  0.91798199  0.55884843
   0.78755637  0.87668620  0.70604871
   0.77216047  0.87498787  0.90326174
   0.81559318  0.83284501  0.02556553
   0.31062267  0.77737153  0.51610544
   0.31058545  0.81640041  0.66945878
   0.00035248  0.42739110  0.22897610
   0.00226679  0.46721038  0.37538462
   0.32097844  0.80199553  0.86944841
   0.32690865  0.84075571  0.99474346
   0.92990500  0.33707425  0.56119675
   0.88969857  0.33665055  0.70758318
   0.58668921  0.99690208  0.21939468
   0.54253938  0.00212141  0.36066920
   0.88572810  0.35636042  0.90331435
   0.84116493  0.35812287  0.01991020
   0.88862970  0.79554678  0.76827970
   0.84518721  0.83750704  0.64602956
   0.91346796  0.75222546  0.11154792
   0.87325395  0.79362307  0.96543241
   0.30588205  0.91114387  0.73494966
   0.30208711  0.87115837  0.60949857
   0.32928232  0.93078356  0.07960801
   0.32022462  0.89475663  0.93381953
   0.98477238  0.56758659  0.43554970
   0.98534364  0.52439678  0.31406158
   0.80941421  0.31540902  0.76823679
   0.85276000  0.31450142  0.64950149
   0.75418154  0.34841823  0.08553133
   0.80128382  0.34015726  0.95662052
   0.45532163  0.99114386  0.41149608
   0.49959970  0.98958527  0.29340363
   0.62510604  0.42679262  0.31713421
   0.87737242  0.07969533  0.65204578
   0.80117505  0.18706111  0.98967260
   0.14508908  0.17730206  0.49707676
   0.72714248  0.11514138  0.48221485
   0.03241315  0.48265807  0.84351816
   0.14983111  0.71683004  0.51926894
   0.49702457  0.03128507  0.82797974
   0.19501281  0.18132290  0.81173061
   0.64765261  0.18474344  0.82704317
   0.17617683  0.62924519  0.86836663
   0.80286727  0.83114402  0.17392010
   0.33692639  0.82801161  0.14525215
   0.83816964  0.37452180  0.16623919
   0.85798461  0.83928953  0.49781692
   0.29221836  0.88398778  0.45879333
   0.97128463  0.53708977  0.16538942
   0.85891309  0.29563170  0.50503436
   0.50051556  0.97695838  0.14321959
   0.26645526  0.65894369  0.57865827
   0.05292685  0.32333551  0.51411007
   0.64257350  0.04411292  0.51415153
   0.01782988  0.70142920  0.82784418
   0.35397656  0.03523573  0.12767482
   0.28397981  0.03569343  0.79536866
   0.63155022  0.31844637  0.20032316
   0.74538909  0.25874968  0.93376442
   0.02323492  0.62862188  0.15756981
   0.64367386  0.97290046  0.84395389
   0.98493327  0.31836393  0.18248682
   0.32286800  0.69283533  0.76171138
   0.71380301  0.97239666  0.17973534
   0.98025603  0.39134879  0.85169124
   0.29201153  0.73381940  0.18850205
   0.72466291  0.32917136  0.48336150
   0.94966174  0.69704515  0.48975771
   0.35477906  0.96401901  0.45454115
   0.70336846  0.43890402  0.36083062
   0.63122252  0.41923593  0.99552539
   0.81966000  0.20438548  0.62907138
 
 position of ions in cartesian coordinates  (Angst):
   4.95059885  5.26684567  2.14109326
   4.80708557  6.09741863  6.34861944
   6.11923463  5.51565112  4.88370722
  17.40488490  1.95281831  2.02744781
  16.62314456  1.47270617  6.22102912
  16.75859241  2.89748736  4.80138872
   6.16961685  8.03622364  4.46174866
  15.23271056 14.33687466  2.33646559
  16.07101751 13.77928455  6.72984984
  14.71156567 12.75713614  5.41444636
  14.26266121  1.44542562  4.29835263
   7.99730773  1.52057397  2.48809772
   6.76372791  2.19415291  3.97096137
   7.91233380  2.38900848  6.71093788
  20.27235882  6.47210421  2.59533629
  20.80572071  4.84762248  3.35431791
  32.13818546 14.32801514  4.85354551
   8.22011464 11.48739904  6.43464156
  19.44651579  6.07461021 -0.06952424
   9.78095475 13.25968233  2.76543466
  11.10204304 14.12543199  4.21639082
  22.22109257 20.35976494  4.74148002
  10.19769067  1.25060670  6.18527683
  10.64368717 12.98177392  0.17905911
  29.31372832 19.99703023  3.96085222
  30.63677336 19.38513873  2.53745009
  29.36371166 19.19835516  6.58561996
  17.76025723 14.83707703  3.56048342
  17.47859052 16.34002932  2.39682897
   5.48901272  7.44861648  1.82796092
  29.40433195 10.29903037  0.26283661
  17.77472515 15.50076985  6.36487766
  27.82364300  8.56565682  3.92754503
  26.50123262  7.64190443  2.52032129
  15.10197753  1.17580301  1.69984768
  27.12301779 20.28483996  0.25891934
  26.99281347  8.79688420  6.57144288
  32.66815117 16.50799776  4.50885359
  32.79220150 15.68668269  0.32277183
  31.42774876 16.23165264  1.74598434
  19.93347354 19.59453735  4.39729706
  20.69866382 20.05197319  0.20757172
  20.53896290 18.62613334  1.61796841
  31.45573706 13.73632618  2.23076550
  22.47933134  6.86081642  4.64949741
  21.58355113  7.93184061  0.01288468
  22.94867893  8.25840178  1.67780054
  23.05952956 20.08532775  2.14269711
  19.65845042  8.88667459  1.50914199
  21.33935994 10.15221463  1.36818995
  21.04585278  9.12619364  3.19694931
  21.83831779  3.92723772 -0.02441663
  22.79850165  3.65521431  4.12280319
  21.29331214  2.08203300  4.44451058
   5.67897377  4.59316368  1.53816653
   6.12001311  3.78792162  2.33294718
   5.63777652  5.46491818  6.02655786
   6.03687958  4.61892467  0.18099092
  17.89880089  2.90730354  1.43046966
  18.71014037  3.64654662  2.18939124
  16.96457162  2.52473716  5.93251897
  17.67943164  3.23195638  0.11000683
   6.48261184  9.05159099  3.89868483
   7.04030665  9.91691725  4.72642643
  14.11174343 13.98614302  1.79700527
  13.06266809 14.08560325  2.55221739
  14.94240716 13.32007944  6.49185280
  13.96715614 13.46304139  0.53625799
  13.18007542  1.13559688  3.71501968
  12.13720807  1.10988855  4.52574591
   7.22139273  2.20499329  2.81826439
   6.88211198  3.01684524  1.86291467
   7.23496312  3.03625152  0.50554155
   6.76649226  3.89264324  6.51317006
  20.16259581  5.35716454  2.60796245
  19.25682123  4.70732051  1.74180165
   7.97850132 11.83431137  5.30402846
   7.40271510 11.02878058  4.31224159
  18.94431833  5.06962014  0.47784111
  18.14136998  4.36289630  6.49500610
  10.87525981 13.71440669  3.07107260
  11.87232223 13.70044659  2.11195846
   9.95189789  0.84178756  5.04444335
  10.94465889  0.79514145  4.07591213
  11.71386765 13.27512359  0.79027793
  12.77001978 13.15072313  0.05375438
  30.15787577 19.36604721  3.68008795
  30.54808410 18.60680685  4.67421316
  30.14977575 18.55947684  6.01814067
  30.65717499 17.74488763  0.04091366
  17.81495435 15.94095906  3.46283192
  18.33068810 16.72444699  4.50612649
   5.71888570  8.51863317  1.56030909
   6.29214211  9.32034320  2.55604263
  18.37928241 16.46108074  5.86445857
  19.03522523 17.24653302  6.71590049
  26.73879834  8.06137109  3.66097709
  25.76578644  8.00183299  4.66344696
  27.36851063 20.69251940  1.39934489
  12.99604619  0.83190170  2.36069588
  25.92735769  8.39692925  5.99550185
  24.91705377  8.33057135 -0.00525618
  31.87838827 17.13841814  5.07968908
  31.40491486 17.90651375  4.25591292
  31.91703727 16.28330159  0.60847980
  31.47754884 17.08662771  6.42320132
  19.48349963 18.60665342  4.95302389
  18.86225562 17.79984860  4.10014848
  20.33016073 19.00294524  0.49195888
  19.60010764 18.30941149  6.30305367
  31.14059994 12.72322553  2.79869233
  30.58080106 11.85903107  1.97200459
  23.55844448  7.46699699  5.08949231
  24.58774289  7.50569686  4.27454407
  22.70362098  8.01606004  0.45579699
  23.68817130  7.95614385  6.37231835
  24.14131263 20.39865361  2.72822091
  25.18418253 20.42575179  1.91748165
  20.65557915  9.40203366  2.05354113
  22.03463666  2.86650918  4.28600043
  21.63581017  4.90963214  6.59605504
   5.82566622  3.75799723  3.35735396
  18.92073015  3.35049563  3.15674353
   7.20299390  9.69094692  5.73496826
  13.15762721 14.50640744  3.51129407
  12.28018037  1.36755162  5.54700158
   7.06243167  3.92276671  5.48896002
  17.93755464  4.63744461  5.51607208
  12.60324404 12.81535934  5.88053234
  30.32450218 17.69922143  1.05208222
  19.13548000 16.97072614  0.93640171
  25.05946251  8.65902966  0.99060692
  31.74038348 17.95391043  3.24569804
  18.80331899 18.03471077  3.07691733
  30.41970789 12.08528495  0.96331352
  24.48775877  7.13263709  3.29078914
  25.04263527 20.16925315  0.89577961
  15.17125094 13.52300071  3.89495958
   5.57400233  6.53438104  3.48992500
  15.94573615  1.81717794  3.38785227
   9.78197896 14.02466689  5.63239139
   8.93609433  1.21206092  0.80835055
   7.24302719  1.14989441  5.36150197
  19.36427994  7.24931383  1.25720387
  21.26236543  6.25477422  6.22580632
   8.96161605 12.55424376  1.07217415
  28.38790927 20.32278424  5.63733147
  27.81891501  7.75119407  1.07573105
  16.96778564 14.28604653  5.13060678
  30.08340026 20.38437100  1.10779389
  28.65910608  9.22614440  5.62854850
  16.79889170 15.03334646  1.23754144
  21.72525355  7.60782362  3.16647594
  32.03081330 15.25265022  3.17427253
  21.37119132 19.71703166  3.03791132
  22.68855587  9.75669679  2.33749845
  20.67597556  9.28939369  6.66643478
  22.32309721  5.26544606  4.14044872
 


--------------------------------------------------------------------------------------------------------


 k-point  1 :   0.0000 0.0000 0.0000  plane waves:   83813

 maximum and minimum number of plane-waves per node :     20956    20948

 maximum number of plane-waves:     83813
 maximum index in each direction: 
   IXMAX=   44   IYMAX=   44   IZMAX=   12
   IXMIN=  -44   IYMIN=  -44   IZMIN=  -12


 real space projection operators:
  total allocation   :     176592.73 KBytes
  max/ min on nodes  :      44152.80      44142.32


 parallel 3D FFT for wavefunctions:
    minimum data exchange during FFTs selected (reduces bandwidth)
 parallel 3D FFT for charge:
    minimum data exchange during FFTs selected (reduces bandwidth)


 total amount of memory used by VASP MPI-rank0   297194. kBytes
=======================================================================

   base      :      30000. kBytes
   nonlr-proj:      77269. kBytes
   fftplans  :      32888. kBytes
   grid      :      96854. kBytes
   one-center:       2400. kBytes
   wavefun   :      57783. kBytes
 
     INWAV:  cpu time    0.0000: real time    0.0002
 Broyden mixing: mesh for mixing (old mesh)
   NGX = 89   NGY = 89   NGZ = 25
  (NGX  =360   NGY  =360   NGZ  =108)
  gives a total of 198025 points

 initial charge density was supplied:
 charge density of overlapping atoms calculated
 number of electron     773.0000000 magnetization      54.0000000
 keeping initial charge density in first step


--------------------------------------------------------------------------------------------------------


 Maximum index for non-local projection operator         2089
 Maximum index for augmentation-charges         1007 (set IRDMAX)


--------------------------------------------------------------------------------------------------------


 First call to EWALD:  gamma=   0.121
 Maximum number of real-space cells 2x 2x 5
 Maximum number of reciprocal cells 4x 4x 2

    FEWALD:  cpu time    0.0090: real time    0.0092


--------------------------------------- Iteration      1(   1)  ---------------------------------------


    POTLOK:  cpu time    1.2088: real time    1.2204
    SETDIJ:  cpu time    0.0790: real time    0.0805
     EDDAV:  cpu time   35.2386: real time   35.4881
       DOS:  cpu time    0.0000: real time    0.0009
    --------------------------------------------
      LOOP:  cpu time   36.5274: real time   36.7901

 eigenvalue-minimisations  :  1992
 total energy-change (2. order) : 0.9104615E+04  (-0.3453028E+05)
 number of electron     773.0000000 magnetization      54.0000000
 augmentation part      773.0000000 magnetization      54.0000000

 Free energy of the ion-electron system (eV)
  ---------------------------------------------------
  alpha Z        PSCENC =       668.07093401
  Ewald energy   TEWEN  =     41396.21273813
  -Hartree energ DENC   =    -83892.37712128
  -exchange      EXHF   =         0.00000000
  -V(xc)+E(xc)   XCENC  =      1906.35461003
  PAW double counting   =     40073.58379495   -40051.86678971
  entropy T*S    EENTRO =        -0.06484173
  eigenvalues    EBANDS =       942.87086461
  atomic energy  EATOM  =     48061.83062452
  Solvation  Ediel_sol  =         0.00000000
  ---------------------------------------------------
  free energy    TOTEN  =      9104.61481352 eV

  energy without entropy =     9104.67965525  energy(sigma->0) =     9104.64723438


--------------------------------------------------------------------------------------------------------




--------------------------------------- Iteration      1(   2)  ---------------------------------------


     EDDAV:  cpu time   38.6501: real time   38.9372
       DOS:  cpu time    0.0010: real time    0.0009
    --------------------------------------------
      LOOP:  cpu time   38.6501: real time   38.9380

 eigenvalue-minimisations  :  2256
 total energy-change (2. order) :-0.8262222E+04  (-0.7441401E+04)
 number of electron     773.0000000 magnetization      54.0000000
 augmentation part      773.0000000 magnetization      54.0000000

 Free energy of the ion-electron system (eV)
  ---------------------------------------------------
  alpha Z        PSCENC =       668.07093401
  Ewald energy   TEWEN  =     41396.21273813
  -Hartree energ DENC   =    -83892.37712128
  -exchange      EXHF   =         0.00000000
  -V(xc)+E(xc)   XCENC  =      1906.35461003
  PAW double counting   =     40073.58379495   -40051.86678971
  entropy T*S    EENTRO =        -0.04471335
  eigenvalues    EBANDS =     -7319.37139028
  atomic energy  EATOM  =     48061.83062452
  Solvation  Ediel_sol  =         0.00000000
  ---------------------------------------------------
  free energy    TOTEN  =       842.39268702 eV

  energy without entropy =      842.43740036  energy(sigma->0) =      842.41504369


--------------------------------------------------------------------------------------------------------




--------------------------------------- Iteration      1(   3)  ---------------------------------------


     EDDAV:  cpu time   52.5130: real time   52.8701
       DOS:  cpu time    0.0010: real time    0.0009
    --------------------------------------------
      LOOP:  cpu time   52.5140: real time   52.8710

 eigenvalue-minimisations  :  3300
 total energy-change (2. order) :-0.1997000E+04  (-0.1897688E+04)
 number of electron     773.0000000 magnetization      54.0000000
 augmentation part      773.0000000 magnetization      54.0000000

 Free energy of the ion-electron system (eV)
  ---------------------------------------------------
  alpha Z        PSCENC =       668.07093401
  Ewald energy   TEWEN  =     41396.21273813
  -Hartree energ DENC   =    -83892.37712128
  -exchange      EXHF   =         0.00000000
  -V(xc)+E(xc)   XCENC  =      1906.35461003
  PAW double counting   =     40073.58379495   -40051.86678971
  entropy T*S    EENTRO =        -0.05411583
  eigenvalues    EBANDS =     -9316.36200917
  atomic energy  EATOM  =     48061.83062452
  Solvation  Ediel_sol  =         0.00000000
  ---------------------------------------------------
  free energy    TOTEN  =     -1154.60733436 eV

  energy without entropy =    -1154.55321852  energy(sigma->0) =    -1154.58027644


--------------------------------------------------------------------------------------------------------




--------------------------------------- Iteration      1(   4)  ---------------------------------------


     EDDAV:  cpu time   50.9173: real time   51.2668
       DOS:  cpu time    0.0010: real time    0.0008
    --------------------------------------------
      LOOP:  cpu time   50.9183: real time   51.2677

 eigenvalue-minimisations  :  3180
 total energy-change (2. order) :-0.1487592E+03  (-0.1393947E+03)
 number of electron     773.0000000 magnetization      54.0000000
 augmentation part      773.0000000 magnetization      54.0000000

 Free energy of the ion-electron system (eV)
  ---------------------------------------------------
  alpha Z        PSCENC =       668.07093401
  Ewald energy   TEWEN  =     41396.21273813
  -Hartree energ DENC   =    -83892.37712128
  -exchange      EXHF   =         0.00000000
  -V(xc)+E(xc)   XCENC  =      1906.35461003
  PAW double counting   =     40073.58379495   -40051.86678971
  entropy T*S    EENTRO =        -0.07546134
  eigenvalues    EBANDS =     -9465.09985520
  atomic energy  EATOM  =     48061.83062452
  Solvation  Ediel_sol  =         0.00000000
  ---------------------------------------------------
  free energy    TOTEN  =     -1303.36652590 eV

  energy without entropy =    -1303.29106456  energy(sigma->0) =    -1303.32879523


--------------------------------------------------------------------------------------------------------




--------------------------------------- Iteration      1(   5)  ---------------------------------------


     EDDAV:  cpu time   52.0661: real time   52.4203
       DOS:  cpu time    0.0010: real time    0.0009
    CHARGE:  cpu time    2.7016: real time    2.7192
    MIXING:  cpu time    0.0250: real time    0.0246
    --------------------------------------------
      LOOP:  cpu time   54.7937: real time   55.1650

 eigenvalue-minimisations  :  3264
 total energy-change (2. order) :-0.7311592E+01  (-0.6897585E+01)
 number of electron     773.0000012 magnetization      55.3961678
 augmentation part      103.1172418 magnetization      32.3796464

 Broyden mixing:
  rms(total) = 0.17385E+02    rms(broyden)= 0.17382E+02
  rms(prec ) = 0.18357E+02
  weight for this iteration     100.00

 Free energy of the ion-electron system (eV)
  ---------------------------------------------------
  alpha Z        PSCENC =       668.07093401
  Ewald energy   TEWEN  =     41396.21273813
  -Hartree energ DENC   =    -83892.37712128
  -exchange      EXHF   =         0.00000000
  -V(xc)+E(xc)   XCENC  =      1906.35461003
  PAW double counting   =     40073.58379495   -40051.86678971
  entropy T*S    EENTRO =        -0.07928563
  eigenvalues    EBANDS =     -9472.40762270
  atomic energy  EATOM  =     48061.83062452
  Solvation  Ediel_sol  =         0.00000000
  ---------------------------------------------------
  free energy    TOTEN  =     -1310.67811769 eV

  energy without entropy =    -1310.59883206  energy(sigma->0) =    -1310.63847487


--------------------------------------------------------------------------------------------------------




--------------------------------------- Iteration      1(   6)  ---------------------------------------


    POTLOK:  cpu time    1.2078: real time    1.2142
    SETDIJ:  cpu time    0.0830: real time    0.0834
    EDDIAG:  cpu time    6.5710: real time    6.6113
  RMM-DIIS:  cpu time   31.6772: real time   31.6899
    ORTHCH:  cpu time    0.6449: real time    0.6473
       DOS:  cpu time    0.0000: real time    0.0011
    CHARGE:  cpu time    2.6516: real time    2.6696
    MIXING:  cpu time    0.0250: real time    0.0243
    --------------------------------------------
      LOOP:  cpu time   42.8615: real time   42.9411

 eigenvalue-minimisations  :  2601
 total energy-change (2. order) :-0.4644089E+03  (-0.3524712E+03)
 number of electron     773.0000031 magnetization      54.9007338
 augmentation part      163.6944504 magnetization      58.7175893

 Broyden mixing:
  rms(total) = 0.54870E+02    rms(broyden)= 0.54869E+02
  rms(prec ) = 0.55526E+02
  weight for this iteration     100.00

 eigenvalues of (default mixing * dielectric matrix)
  average eigenvalue GAMMA=   0.0756
  0.0756

 Free energy of the ion-electron system (eV)
  ---------------------------------------------------
  alpha Z        PSCENC =       668.07093401
  Ewald energy   TEWEN  =     41396.21273813
  -Hartree energ DENC   =    -84170.87060858
  -exchange      EXHF   =         0.00000000
  -V(xc)+E(xc)   XCENC  =      1992.95809172
  PAW double counting   =     57428.86136415   -57183.89410820
  entropy T*S    EENTRO =        -0.02483180
  eigenvalues    EBANDS =     -9968.23121522
  atomic energy  EATOM  =     48061.83062452
  Solvation  Ediel_sol  =         0.00000000
  ---------------------------------------------------
  free energy    TOTEN  =     -1775.08701128 eV

  energy without entropy =    -1775.06217948  energy(sigma->0) =    -1775.07459538


--------------------------------------------------------------------------------------------------------




--------------------------------------- Iteration      1(   7)  ---------------------------------------


    POTLOK:  cpu time    1.2048: real time    1.2124
    SETDIJ:  cpu time    0.0830: real time    0.0826
    EDDIAG:  cpu time    6.5880: real time    6.6289
  RMM-DIIS:  cpu time   24.3083: real time   24.3223
    ORTHCH:  cpu time    0.6459: real time    0.6497
       DOS:  cpu time    0.0000: real time    0.0013
    CHARGE:  cpu time    2.6666: real time    2.6843
    MIXING:  cpu time    0.0250: real time    0.0256
    --------------------------------------------
      LOOP:  cpu time   35.5206: real time   35.6070

 eigenvalue-minimisations  :  1992
 total energy-change (2. order) : 0.1930378E+03  (-0.2328881E+02)
 number of electron     773.0000029 magnetization      52.2970508
 augmentation part      161.6201580 magnetization      52.3548394

 Broyden mixing:
  rms(total) = 0.35652E+02    rms(broyden)= 0.35651E+02
  rms(prec ) = 0.36380E+02
  weight for this iteration     100.00

 eigenvalues of (default mixing * dielectric matrix)
  average eigenvalue GAMMA=   0.2631
  0.2631  0.2631

 Free energy of the ion-electron system (eV)
  ---------------------------------------------------
  alpha Z        PSCENC =       668.07093401
  Ewald energy   TEWEN  =     41396.21273813
  -Hartree energ DENC   =    -84298.39597593
  -exchange      EXHF   =         0.00000000
  -V(xc)+E(xc)   XCENC  =      1985.77002884
  PAW double counting   =     58797.54227474   -58588.68225618
  entropy T*S    EENTRO =        -0.05541467
  eigenvalues    EBANDS =     -9604.34216253
  atomic energy  EATOM  =     48061.83062452
  Solvation  Ediel_sol  =         0.00000000
  ---------------------------------------------------
  free energy    TOTEN  =     -1582.04920908 eV

  energy without entropy =    -1581.99379440  energy(sigma->0) =    -1582.02150174


--------------------------------------------------------------------------------------------------------




--------------------------------------- Iteration      1(   8)  ---------------------------------------


    POTLOK:  cpu time    1.2108: real time    1.2183
    SETDIJ:  cpu time    0.0810: real time    0.0815
    EDDIAG:  cpu time    6.5590: real time    6.6011
  RMM-DIIS:  cpu time   26.1810: real time   26.2040
    ORTHCH:  cpu time    0.6419: real time    0.6460
       DOS:  cpu time    0.0010: real time    0.0011
    CHARGE:  cpu time    2.6286: real time    2.6505
    MIXING:  cpu time    0.0260: real time    0.0253
    --------------------------------------------
      LOOP:  cpu time   37.3293: real time   37.4277

 eigenvalue-minimisations  :  2138
 total energy-change (2. order) : 0.3720979E+03  (-0.5294523E+02)
 number of electron     773.0000022 magnetization      50.9706721
 augmentation part      128.7944740 magnetization      40.7841427

 Broyden mixing:
  rms(total) = 0.13501E+02    rms(broyden)= 0.13500E+02
  rms(prec ) = 0.14620E+02
  weight for this iteration     100.00

 eigenvalues of (default mixing * dielectric matrix)
  average eigenvalue GAMMA=   0.3621
  0.4250  0.4250  0.2363

 Free energy of the ion-electron system (eV)
  ---------------------------------------------------
  alpha Z        PSCENC =       668.07093401
  Ewald energy   TEWEN  =     41396.21273813
  -Hartree energ DENC   =    -85072.11163014
  -exchange      EXHF   =         0.00000000
  -V(xc)+E(xc)   XCENC  =      1968.17486495
  PAW double counting   =     65371.03389940   -65385.76817293
  entropy T*S    EENTRO =        -0.01971657
  eigenvalues    EBANDS =     -8217.37480276
  atomic energy  EATOM  =     48061.83062452
  Solvation  Ediel_sol  =         0.00000000
  ---------------------------------------------------
  free energy    TOTEN  =     -1209.95126140 eV

  energy without entropy =    -1209.93154483  energy(sigma->0) =    -1209.94140311


--------------------------------------------------------------------------------------------------------




--------------------------------------- Iteration      1(   9)  ---------------------------------------


    POTLOK:  cpu time    1.2078: real time    1.2156
    SETDIJ:  cpu time    0.0810: real time    0.0812
    EDDIAG:  cpu time    6.5820: real time    6.6172
  RMM-DIIS:  cpu time   25.3092: real time   25.3185
    ORTHCH:  cpu time    0.6419: real time    0.6446
       DOS:  cpu time    0.0000: real time    0.0011
    CHARGE:  cpu time    2.6576: real time    2.6751
    MIXING:  cpu time    0.0260: real time    0.0260
    --------------------------------------------
      LOOP:  cpu time   36.5055: real time   36.5794

 eigenvalue-minimisations  :  2062
 total energy-change (2. order) :-0.3763792E+02  (-0.2500181E+02)
 number of electron     773.0000011 magnetization      48.8167887
 augmentation part      109.3360213 magnetization      39.1952685

 Broyden mixing:
  rms(total) = 0.17740E+02    rms(broyden)= 0.17739E+02
  rms(prec ) = 0.19792E+02
  weight for this iteration     100.00

 eigenvalues of (default mixing * dielectric matrix)
  average eigenvalue GAMMA=   0.3575
  0.6996  0.2824  0.2824  0.1658

 Free energy of the ion-electron system (eV)
  ---------------------------------------------------
  alpha Z        PSCENC =       668.07093401
  Ewald energy   TEWEN  =     41396.21273813
  -Hartree energ DENC   =    -85430.52223228
  -exchange      EXHF   =         0.00000000
  -V(xc)+E(xc)   XCENC  =      1977.52644117
  PAW double counting   =     70626.94582436   -70681.56171885
  entropy T*S    EENTRO =        -0.06678857
  eigenvalues    EBANDS =     -7866.02500834
  atomic energy  EATOM  =     48061.83062452
  Solvation  Ediel_sol  =         0.00000000
  ---------------------------------------------------
  free energy    TOTEN  =     -1247.58918587 eV

  energy without entropy =    -1247.52239729  energy(sigma->0) =    -1247.55579158


--------------------------------------------------------------------------------------------------------




--------------------------------------- Iteration      1(  10)  ---------------------------------------


    POTLOK:  cpu time    1.2038: real time    1.2114
    SETDIJ:  cpu time    0.0810: real time    0.0820
    EDDIAG:  cpu time    6.5770: real time    6.6174
  RMM-DIIS:  cpu time   26.8659: real time   26.8880
    ORTHCH:  cpu time    0.6419: real time    0.6449
       DOS:  cpu time    0.0010: real time    0.0012
    CHARGE:  cpu time    2.6386: real time    2.6549
    MIXING:  cpu time    0.0270: real time    0.0280
    --------------------------------------------
      LOOP:  cpu time   38.0362: real time   38.1280

 eigenvalue-minimisations  :  2213
 total energy-change (2. order) : 0.2369198E+02  (-0.1188272E+02)
 number of electron     773.0000019 magnetization      47.0730827
 augmentation part      117.4021589 magnetization      42.6756795

 Broyden mixing:
  rms(total) = 0.15571E+02    rms(broyden)= 0.15571E+02
  rms(prec ) = 0.17237E+02
  weight for this iteration     100.00

 eigenvalues of (default mixing * dielectric matrix)
  average eigenvalue GAMMA=   0.3465
  0.7397  0.3999  0.2166  0.2166  0.1595

 Free energy of the ion-electron system (eV)
  ---------------------------------------------------
  alpha Z        PSCENC =       668.07093401
  Ewald energy   TEWEN  =     41396.21273813
  -Hartree energ DENC   =    -85530.74587300
  -exchange      EXHF   =         0.00000000
  -V(xc)+E(xc)   XCENC  =      1988.95483570
  PAW double counting   =     77393.58125864   -77467.91498023
  entropy T*S    EENTRO =        -0.04248072
  eigenvalues    EBANDS =     -7733.84426095
  atomic energy  EATOM  =     48061.83062452
  Solvation  Ediel_sol  =         0.00000000
  ---------------------------------------------------
  free energy    TOTEN  =     -1223.89720391 eV

  energy without entropy =    -1223.85472319  energy(sigma->0) =    -1223.87596355


--------------------------------------------------------------------------------------------------------




--------------------------------------- Iteration      1(  11)  ---------------------------------------


    POTLOK:  cpu time    1.2048: real time    1.2124
    SETDIJ:  cpu time    0.0810: real time    0.0813
    EDDIAG:  cpu time    6.5860: real time    6.6268
  RMM-DIIS:  cpu time   24.9312: real time   24.9459
    ORTHCH:  cpu time    0.6439: real time    0.6471
       DOS:  cpu time    0.0010: real time    0.0012
    CHARGE:  cpu time    2.6816: real time    2.7008
    MIXING:  cpu time    0.0280: real time    0.0276
    --------------------------------------------
      LOOP:  cpu time   36.1585: real time   36.2432

 eigenvalue-minimisations  :  2046
 total energy-change (2. order) : 0.1234301E+03  (-0.1456668E+02)
 number of electron     773.0000013 magnetization      44.4137638
 augmentation part      117.3915130 magnetization      35.0888852

 Broyden mixing:
  rms(total) = 0.99494E+01    rms(broyden)= 0.99484E+01
  rms(prec ) = 0.10953E+02
  weight for this iteration     100.00

 eigenvalues of (default mixing * dielectric matrix)
  average eigenvalue GAMMA=   0.4045
  1.0461  0.5104  0.2872  0.2872  0.1746  0.1213

 Free energy of the ion-electron system (eV)
  ---------------------------------------------------
  alpha Z        PSCENC =       668.07093401
  Ewald energy   TEWEN  =     41396.21273813
  -Hartree energ DENC   =    -85656.84079244
  -exchange      EXHF   =         0.00000000
  -V(xc)+E(xc)   XCENC  =      2000.53001051
  PAW double counting   =     81388.50467771   -81467.51924948
  entropy T*S    EENTRO =        -0.09311169
  eigenvalues    EBANDS =     -7491.16288787
  atomic energy  EATOM  =     48061.83062452
  Solvation  Ediel_sol  =         0.00000000
[...]
  weight for this iteration     100.00

 eigenvalues of (default mixing * dielectric matrix)
  average eigenvalue GAMMA=   0.1963
  0.8418  0.8418  0.7863  0.4283  0.4283  0.3792  0.3081  0.3081  0.2526  0.2526
  0.2575  0.2024  0.2024  0.2149  0.2149  0.1953  0.1953  0.1751  0.1751  0.0573
  0.0573  0.1349  0.1292  0.1155  0.1095  0.1095  0.0945  0.0945  0.0971  0.0839
  0.0716  0.0716  0.0692  0.0119  0.0121  0.0121  0.0005  0.0005  0.0025  0.0307
  0.0227

 Free energy of the ion-electron system (eV)
  ---------------------------------------------------
  alpha Z        PSCENC =       668.07093401
  Ewald energy   TEWEN  =     37945.78160185
  -Hartree energ DENC   =    -82921.28317260
  -exchange      EXHF   =         0.00000000
  -V(xc)+E(xc)   XCENC  =      1943.25219227
  PAW double counting   =     94995.44098978   -95060.42344262
  entropy T*S    EENTRO =        -0.06665981
  eigenvalues    EBANDS =     -6667.55699040
  atomic energy  EATOM  =     48061.83062452
  Solvation  Ediel_sol  =         0.00000000
  ---------------------------------------------------
  free energy    TOTEN  =     -1034.95392301 eV

  energy without entropy =    -1034.88726319  energy(sigma->0) =    -1034.92059310


--------------------------------------------------------------------------------------------------------




--------------------------------------- Iteration      7(  98)  ---------------------------------------


    POTLOK:  cpu time    1.1908: real time    1.1968
    SETDIJ:  cpu time    0.0800: real time    0.0802
    EDDIAG:  cpu time    6.6150: real time    6.6590
  RMM-DIIS:  cpu time   24.6173: real time   24.6729
    ORTHCH:  cpu time    0.6419: real time    0.6476
       DOS:  cpu time    0.0020: real time    0.0016
    CHARGE:  cpu time    2.6856: real time    2.7041
    MIXING:  cpu time    0.1810: real time    0.1817
    --------------------------------------------
      LOOP:  cpu time   36.0135: real time   36.1438

 eigenvalue-minimisations  :  2018
 total energy-change (2. order) : 0.1594696E+01  (-0.2221837E+00)
 number of electron     773.0000034 magnetization       6.2556724
 augmentation part      120.3826355 magnetization       5.6572489

 Broyden mixing:
  rms(total) = 0.62662E+01    rms(broyden)= 0.62659E+01
  rms(prec ) = 0.63798E+01
  weight for this iteration     100.00

 eigenvalues of (default mixing * dielectric matrix)
  average eigenvalue GAMMA=   0.2012
  0.8899  0.8899  0.7749  0.4558  0.4558  0.4496  0.3126  0.3126  0.2519  0.2519
  0.3010  0.2151  0.2151  0.2283  0.2283  0.1989  0.1989  0.1516  0.1516  0.0569
  0.0569  0.0119  0.0122  0.0122  0.0006  0.0006  0.0029  0.1384  0.1384  0.0219
  0.0297  0.1112  0.1112  0.0925  0.0925  0.1036  0.1036  0.0713  0.0713  0.0701
  0.1024  0.1024

 Free energy of the ion-electron system (eV)
  ---------------------------------------------------
  alpha Z        PSCENC =       668.07093401
  Ewald energy   TEWEN  =     37945.78160185
  -Hartree energ DENC   =    -82919.78443514
  -exchange      EXHF   =         0.00000000
  -V(xc)+E(xc)   XCENC  =      1943.21896445
  PAW double counting   =     94931.08077615   -94994.04086779
  entropy T*S    EENTRO =        -0.03824480
  eigenvalues    EBANDS =     -6669.47858065
  atomic energy  EATOM  =     48061.83062452
  Solvation  Ediel_sol  =         0.00000000
  ---------------------------------------------------
  free energy    TOTEN  =     -1033.35922739 eV

  energy without entropy =    -1033.32098259  energy(sigma->0) =    -1033.34010499


--------------------------------------------------------------------------------------------------------




--------------------------------------- Iteration      7(  99)  ---------------------------------------


    POTLOK:  cpu time    1.1888: real time    1.1958
    SETDIJ:  cpu time    0.0800: real time    0.0801
    EDDIAG:  cpu time    6.6010: real time    6.6457
  RMM-DIIS:  cpu time   25.7371: real time   25.7794
    ORTHCH:  cpu time    0.6409: real time    0.6440
       DOS:  cpu time    0.0000: real time    0.0010
    CHARGE:  cpu time    2.6816: real time    2.7157
    MIXING:  cpu time    0.1870: real time    0.1880
    --------------------------------------------
      LOOP:  cpu time   37.1164: real time   37.2497

 eigenvalue-minimisations  :  2103
 total energy-change (2. order) : 0.3903583E+00  (-0.1193462E+00)
 number of electron     773.0000035 magnetization       6.0391493
 augmentation part      120.7061945 magnetization       5.1111094

 Broyden mixing:
  rms(total) = 0.61110E+01    rms(broyden)= 0.61108E+01
  rms(prec ) = 0.61750E+01
  weight for this iteration     100.00

 eigenvalues of (default mixing * dielectric matrix)
  average eigenvalue GAMMA=   0.2066
  0.9590  0.9590  0.7536  0.4805  0.4805  0.4554  0.2494  0.2494  0.2953  0.2953
  0.2969  0.2969  0.2292  0.2292  0.2511  0.1643  0.1643  0.1870  0.1870  0.1867
  0.0581  0.0581  0.0123  0.0125  0.0125  0.0007  0.0007  0.0030  0.1467  0.1467
  0.0220  0.0311  0.0933  0.0933  0.1101  0.1101  0.0705  0.0705  0.0709  0.1129
  0.0976  0.0976  0.0839

 Free energy of the ion-electron system (eV)
  ---------------------------------------------------
  alpha Z        PSCENC =       668.07093401
  Ewald energy   TEWEN  =     37945.78160185
  -Hartree energ DENC   =    -82921.33706450
  -exchange      EXHF   =         0.00000000
  -V(xc)+E(xc)   XCENC  =      1943.43643474
  PAW double counting   =     94879.50890885   -94940.67199563
  entropy T*S    EENTRO =        -0.04027112
  eigenvalues    EBANDS =     -6669.54804186
  atomic energy  EATOM  =     48061.83062452
  Solvation  Ediel_sol  =         0.00000000
  ---------------------------------------------------
  free energy    TOTEN  =     -1032.96886913 eV

  energy without entropy =    -1032.92859801  energy(sigma->0) =    -1032.94873357


--------------------------------------------------------------------------------------------------------




--------------------------------------- Iteration      7( 100)  ---------------------------------------


    POTLOK:  cpu time    1.1898: real time    1.1948
    SETDIJ:  cpu time    0.0800: real time    0.0797
    EDDIAG:  cpu time    6.6090: real time    6.6546
  RMM-DIIS:  cpu time   25.6481: real time   25.6795
    ORTHCH:  cpu time    0.6439: real time    0.6481
       DOS:  cpu time    0.0010: real time    0.0013
    CHARGE:  cpu time    2.6676: real time    2.7035
    MIXING:  cpu time    0.1940: real time    0.1957
    --------------------------------------------
      LOOP:  cpu time   37.0334: real time   37.1574

 eigenvalue-minimisations  :  2106
 total energy-change (2. order) :-0.3333818E+01  (-0.6129295E+00)
 number of electron     773.0000035 magnetization       5.9605157
 augmentation part      120.4204075 magnetization       4.3178364

 Broyden mixing:
  rms(total) = 0.73741E+01    rms(broyden)= 0.73741E+01
  rms(prec ) = 0.74248E+01
  weight for this iteration     100.00

 eigenvalues of (default mixing * dielectric matrix)
  average eigenvalue GAMMA=   0.2104
  0.9353  0.9353  0.7631  0.5107  0.5107  0.4912  0.3628  0.3628  0.2499  0.2499
  0.2649  0.2649  0.2320  0.2320  0.2568  0.1969  0.1969  0.1850  0.1850  0.1839
  0.1839  0.1440  0.1440  0.0579  0.0579  0.0114  0.0124  0.0124  0.0008  0.0008
  0.0034  0.0937  0.0937  0.1099  0.1099  0.0219  0.0351  0.0692  0.0692  0.1136
  0.0986  0.0986  0.0678  0.0775

 Free energy of the ion-electron system (eV)
  ---------------------------------------------------
  alpha Z        PSCENC =       668.07093401
  Ewald energy   TEWEN  =     37945.78160185
  -Hartree energ DENC   =    -82927.46703261
  -exchange      EXHF   =         0.00000000
  -V(xc)+E(xc)   XCENC  =      1943.90976185
  PAW double counting   =     94819.51405931   -94880.00100177
  entropy T*S    EENTRO =        -0.03780673
  eigenvalues    EBANDS =     -6667.90382779
  atomic energy  EATOM  =     48061.83062452
  Solvation  Ediel_sol  =         0.00000000
  ---------------------------------------------------
  free energy    TOTEN  =     -1036.30268735 eV

  energy without entropy =    -1036.26488062  energy(sigma->0) =    -1036.28378398


--------------------------------------------------------------------------------------------------------




--------------------------------------- Iteration      7( 101)  ---------------------------------------


    POTLOK:  cpu time    1.1908: real time    1.1986
    SETDIJ:  cpu time    0.0800: real time    0.0796
    EDDIAG:  cpu time    6.5970: real time    6.6533
  RMM-DIIS:  cpu time   25.7531: real time   25.7867
    ORTHCH:  cpu time    0.6339: real time    0.6390
       DOS:  cpu time    0.0010: real time    0.0012
    CHARGE:  cpu time    2.6826: real time    2.7032
    MIXING:  cpu time    0.1780: real time    0.1794
    --------------------------------------------
      LOOP:  cpu time   37.1174: real time   37.2411

 eigenvalue-minimisations  :  2107
 total energy-change (2. order) : 0.3598804E+01  (-0.6846963E+00)
 number of electron     773.0000035 magnetization       5.6962524
 augmentation part      120.3802215 magnetization       4.7762432

 Broyden mixing:
  rms(total) = 0.59501E+01    rms(broyden)= 0.59500E+01
  rms(prec ) = 0.60055E+01
  weight for this iteration     100.00

 eigenvalues of (default mixing * dielectric matrix)
  average eigenvalue GAMMA=   0.2265
  0.9549  0.9549  0.8173  0.5612  0.5612  0.5594  0.4327  0.4327  0.2374  0.2374
  0.2298  0.2298  0.2448  0.2448  0.2367  0.2367  0.1672  0.1672  0.1832  0.0119
  0.0588  0.0588  0.0016  0.0007  0.0028  0.0180  0.0180  0.0244  0.1029  0.1029
  0.1217  0.1217  0.1275  0.0756  0.0756  0.1058  0.1024  0.0790  0.0790  0.0799

 Free energy of the ion-electron system (eV)
  ---------------------------------------------------
  alpha Z        PSCENC =       668.07093401
  Ewald energy   TEWEN  =     37945.78160185
  -Hartree energ DENC   =    -82936.66252835
  -exchange      EXHF   =         0.00000000
  -V(xc)+E(xc)   XCENC  =      1944.06922448
  PAW double counting   =     94879.11331076   -94939.32503040
  entropy T*S    EENTRO =        -0.03883765
  eigenvalues    EBANDS =     -6655.54318291
  atomic energy  EATOM  =     48061.83062452
  Solvation  Ediel_sol  =         0.00000000
  ---------------------------------------------------
  free energy    TOTEN  =     -1032.70388368 eV

  energy without entropy =    -1032.66504603  energy(sigma->0) =    -1032.68446486


--------------------------------------------------------------------------------------------------------




--------------------------------------- Iteration      7( 102)  ---------------------------------------


    POTLOK:  cpu time    1.1908: real time    1.1959
    SETDIJ:  cpu time    0.0790: real time    0.0795
    EDDIAG:  cpu time    6.6070: real time    6.6628
  RMM-DIIS:  cpu time   26.9889: real time   27.0388
    ORTHCH:  cpu time    0.6399: real time    0.6456
       DOS:  cpu time    0.0010: real time    0.0014
    CHARGE:  cpu time    2.6836: real time    2.7034
    MIXING:  cpu time    0.1720: real time    0.1735
    --------------------------------------------
      LOOP:  cpu time   38.3622: real time   38.5014

 eigenvalue-minimisations  :  2215
 total energy-change (2. order) :-0.3926596E+01  (-0.2443841E+00)
 number of electron     773.0000038 magnetization       5.5555520
 augmentation part      119.4012595 magnetization       3.5083704

 Broyden mixing:
  rms(total) = 0.69785E+01    rms(broyden)= 0.69781E+01
  rms(prec ) = 0.74539E+01
  weight for this iteration     100.00

 eigenvalues of (default mixing * dielectric matrix)
  average eigenvalue GAMMA=   0.2271
  0.8853  0.8853  0.8643  0.6436  0.6436  0.5925  0.4231  0.4231  0.2389  0.2389
  0.2293  0.2293  0.2516  0.2516  0.2331  0.2331  0.1648  0.1648  0.1837  0.0582
  0.0582  0.0116  0.0016  0.0007  0.0027  0.0167  0.0167  0.1464  0.1464  0.0243
  0.1027  0.1027  0.0811  0.0811  0.1162  0.1162  0.1150  0.1072  0.0749  0.0749
  0.0770

 Free energy of the ion-electron system (eV)
  ---------------------------------------------------
  alpha Z        PSCENC =       668.07093401
  Ewald energy   TEWEN  =     37945.78160185
  -Hartree energ DENC   =    -82959.97966661
  -exchange      EXHF   =         0.00000000
  -V(xc)+E(xc)   XCENC  =      1944.78850762
  PAW double counting   =     94776.01432875   -94835.62670904
  entropy T*S    EENTRO =        -0.05967206
  eigenvalues    EBANDS =     -6637.45042873
  atomic energy  EATOM  =     48061.83062452
  Solvation  Ediel_sol  =         0.00000000
  ---------------------------------------------------
  free energy    TOTEN  =     -1036.63047968 eV

  energy without entropy =    -1036.57080762  energy(sigma->0) =    -1036.60064365


--------------------------------------------------------------------------------------------------------




--------------------------------------- Iteration      7( 103)  ---------------------------------------


    POTLOK:  cpu time    1.1898: real time    1.1985
    SETDIJ:  cpu time    0.0800: real time    0.0793
    EDDIAG:  cpu time    6.6050: real time    6.6498
  RMM-DIIS:  cpu time   24.6902: real time   24.7471
    ORTHCH:  cpu time    0.6399: real time    0.6444
       DOS:  cpu time    0.0010: real time    0.0014
    CHARGE:  cpu time    2.6756: real time    2.6934
    MIXING:  cpu time    0.1780: real time    0.1808
    --------------------------------------------
      LOOP:  cpu time   36.0595: real time   36.1940

 eigenvalue-minimisations  :  2018
 total energy-change (2. order) : 0.3668418E+01  (-0.3116815E+00)
 number of electron     773.0000035 magnetization       5.4783623
 augmentation part      120.2528217 magnetization       3.4350489

 Broyden mixing:
  rms(total) = 0.56281E+01    rms(broyden)= 0.56278E+01
  rms(prec ) = 0.56882E+01
  weight for this iteration     100.00

 eigenvalues of (default mixing * dielectric matrix)
  average eigenvalue GAMMA=   0.2334
  0.9533  0.9181  0.9181  0.6400  0.6400  0.6188  0.4412  0.4412  0.2476  0.2476
  0.3316  0.2413  0.2413  0.2422  0.2422  0.2234  0.2234  0.1977  0.1552  0.1552
  0.0575  0.0575  0.0117  0.0016  0.0009  0.0031  0.0156  0.0156  0.1499  0.0259
  0.1226  0.1226  0.1032  0.1032  0.0878  0.0878  0.0679  0.0679  0.1077  0.1047
  0.0839  0.0839

 Free energy of the ion-electron system (eV)
  ---------------------------------------------------
  alpha Z        PSCENC =       668.07093401
  Ewald energy   TEWEN  =     37945.78160185
  -Hartree energ DENC   =    -82945.16046985
  -exchange      EXHF   =         0.00000000
  -V(xc)+E(xc)   XCENC  =      1944.46367561
  PAW double counting   =     94679.32280302   -94733.71071679
  entropy T*S    EENTRO =        -0.05659046
  eigenvalues    EBANDS =     -6653.50392408
  atomic energy  EATOM  =     48061.83062452
  Solvation  Ediel_sol  =         0.00000000
  ---------------------------------------------------
  free energy    TOTEN  =     -1032.96206217 eV

  energy without entropy =    -1032.90547170  energy(sigma->0) =    -1032.93376694


--------------------------------------------------------------------------------------------------------




--------------------------------------- Iteration      7( 104)  ---------------------------------------


    POTLOK:  cpu time    1.1918: real time    1.1974
    SETDIJ:  cpu time    0.0780: real time    0.0779
    EDDIAG:  cpu time    6.6250: real time    6.6675
  RMM-DIIS:  cpu time   27.2789: real time   27.3317
    ORTHCH:  cpu time    0.6399: real time    0.6433
       DOS:  cpu time    0.0000: real time    0.0012
    CHARGE:  cpu time    2.6816: real time    2.6991
    MIXING:  cpu time    0.1870: real time    0.1890
    --------------------------------------------
      LOOP:  cpu time   38.6821: real time   38.8071

 eigenvalue-minimisations  :  2240
 total energy-change (2. order) : 0.5625759E+00  (-0.8339165E-01)
 number of electron     773.0000035 magnetization       5.3648030
 augmentation part      120.1734395 magnetization       3.4013635

 Broyden mixing:
  rms(total) = 0.54995E+01    rms(broyden)= 0.54994E+01
  rms(prec ) = 0.55437E+01
  weight for this iteration     100.00

 eigenvalues of (default mixing * dielectric matrix)
  average eigenvalue GAMMA=   0.2380
  0.9710  0.9710  0.9416  0.6458  0.6137  0.6137  0.4573  0.4573  0.2453  0.2453
  0.2728  0.2728  0.2943  0.2943  0.2400  0.2400  0.2261  0.2261  0.2141  0.1530
  0.1530  0.1561  0.1238  0.1238  0.0597  0.0597  0.0963  0.0963  0.0115  0.0016
  0.0009  0.0033  0.0159  0.0159  0.0268  0.0885  0.0885  0.0635  0.0635  0.0806
  0.1086  0.1059  0.0955

 Free energy of the ion-electron system (eV)
  ---------------------------------------------------
  alpha Z        PSCENC =       668.07093401
  Ewald energy   TEWEN  =     37945.78160185
  -Hartree energ DENC   =    -82950.42541172
  -exchange      EXHF   =         0.00000000
  -V(xc)+E(xc)   XCENC  =      1944.62500189
  PAW double counting   =     94626.47109787   -94681.67417143
  entropy T*S    EENTRO =        -0.06242914
  eigenvalues    EBANDS =     -6647.01673413
  atomic energy  EATOM  =     48061.83062452
  Solvation  Ediel_sol  =         0.00000000
  ---------------------------------------------------
  free energy    TOTEN  =     -1032.39948629 eV

  energy without entropy =    -1032.33705715  energy(sigma->0) =    -1032.36827172


--------------------------------------------------------------------------------------------------------




--------------------------------------- Iteration      7( 105)  ---------------------------------------


    POTLOK:  cpu time    1.1888: real time    1.1984
    SETDIJ:  cpu time    0.0790: real time    0.0794
    EDDIAG:  cpu time    6.6030: real time    6.6452
  RMM-DIIS:  cpu time   26.1230: real time   26.1655
    ORTHCH:  cpu time    0.6409: real time    0.6452
       DOS:  cpu time    0.0010: real time    0.0011
    CHARGE:  cpu time    2.6596: real time    2.6905
    MIXING:  cpu time    0.1930: real time    0.1951
    --------------------------------------------
      LOOP:  cpu time   37.4873: real time   37.6203

 eigenvalue-minimisations  :  2137
 total energy-change (2. order) : 0.7857525E-01  (-0.6046458E-01)
 number of electron     773.0000035 magnetization       5.1952278
 augmentation part      119.9533770 magnetization       3.3533688

 Broyden mixing:
  rms(total) = 0.54041E+01    rms(broyden)= 0.54040E+01
  rms(prec ) = 0.54481E+01
  weight for this iteration     100.00

 eigenvalues of (default mixing * dielectric matrix)
  average eigenvalue GAMMA=   0.2462
  1.1236  1.1236  0.7404  0.6941  0.6941  0.6503  0.4461  0.4461  0.4027  0.4027
  0.2460  0.2460  0.2337  0.2337  0.2530  0.2530  0.2405  0.2405  0.1583  0.1583
  0.1807  0.1807  0.0580  0.0580  0.0112  0.0016  0.0008  0.0030  0.0158  0.0158
  0.0254  0.0888  0.0888  0.1079  0.1079  0.1161  0.1161  0.1239  0.1239  0.0690
  0.0690  0.1027  0.1027  0.0801

 Free energy of the ion-electron system (eV)
  ---------------------------------------------------
  alpha Z        PSCENC =       668.07093401
  Ewald energy   TEWEN  =     37945.78160185
  -Hartree energ DENC   =    -82952.97973611
  -exchange      EXHF   =         0.00000000
  -V(xc)+E(xc)   XCENC  =      1944.93485562
  PAW double counting   =     94682.24212679   -94736.88842497
  entropy T*S    EENTRO =        -0.04761087
  eigenvalues    EBANDS =     -6645.26528188
  atomic energy  EATOM  =     48061.83062452
  Solvation  Ediel_sol  =         0.00000000
  ---------------------------------------------------
  free energy    TOTEN  =     -1032.32091104 eV

  energy without entropy =    -1032.27330017  energy(sigma->0) =    -1032.29710561


--------------------------------------------------------------------------------------------------------




--------------------------------------- Iteration      7( 106)  ---------------------------------------


    POTLOK:  cpu time    1.1848: real time    1.1965
    SETDIJ:  cpu time    0.0800: real time    0.0797
