   6   6   0   0
  0.4500000E+04  0.3000000E-08  0.3000000E-08  0.3000000E-08  0.5000000E-15
  1.000000000000000E-004
  CAR 
 Co–organic framework                  
      1.55032226    -28.53356794  301     -6.45951350      1.00000000
    -28.534  0.0000E+00  0.0000E+00  0.0000E+00  0.0000E+00
    -28.433  0.0000E+00  0.0000E+00  0.0000E+00  0.0000E+00
    -28.333  0.0000E+00  0.0000E+00  0.0000E+00  0.0000E+00
    -28.233  0.0000E+00  0.0000E+00  0.0000E+00  0.0000E+00
    -28.132  0.0000E+00  0.0000E+00  0.0000E+00  0.0000E+00
    -28.032  0.0000E+00  0.0000E+00  0.0000E+00  0.0000E+00
    -27.932  0.0000E+00  0.0000E+00  0.0000E+00  0.0000E+00
    -27.832  0.0000E+00  0.0000E+00  0.0000E+00  0.0000E+00
    -27.731  0.0000E+00  0.0000E+00  0.0000E+00  0.0000E+00
    -27.631  0.0000E+00  0.0000E+00  0.0000E+00  0.0000E+00
    -27.531  0.0000E+00  0.0000E+00  0.0000E+00  0.0000E+00
    -27.430  0.3775E-15  0.0000E+00  0.3786E-16  0.0000E+00
    -27.330  0.1726E-07  0.0000E+00  0.1731E-08  0.0000E+00
    -27.230  0.3544E-03  0.0000E+00  0.3554E-04  0.0000E+00
    -27.130  0.8110E-02  0.1827E-16  0.8488E-03  0.1832E-17
    -27.029  0.1507E-02  0.2440E-08  0.9999E-03  0.2447E-09
    -26.929  0.5477E-06  0.1408E-03  0.1000E-02  0.1412E-04
    -26.829  0.1011E-12  0.7235E-02  0.1000E-02  0.7397E-03
    -26.729  0.0000E+00  0.2594E-02  0.1000E-02  0.9997E-03
    -26.628  0.0000E+00  0.2513E-05  0.1000E-02  0.1000E-02
    -26.528  0.0000E+00  0.1348E-11  0.1000E-02  0.1000E-02
    -26.428  0.0000E+00  0.0000E+00  0.1000E-02  0.1000E-02
    -26.327  0.0000E+00  0.0000E+00  0.1000E-02  0.1000E-02
    -26.227  0.0000E+00  0.0000E+00  0.1000E-02  0.1000E-02
    -26.127  0.0000E+00  0.0000E+00  0.1000E-02  0.1000E-02
    -26.027  0.0000E+00  0.0000E+00  0.1000E-02  0.1000E-02
    -25.926  0.0000E+00  0.0000E+00  0.1000E-02  0.1000E-02
    -25.826  0.0000E+00  0.0000E+00  0.1000E-02  0.1000E-02
    -25.726  0.0000E+00  0.0000E+00  0.1000E-02  0.1000E-02
    -25.625  0.0000E+00  0.0000E+00  0.1000E-02  0.1000E-02
    -25.525  0.6477E-16  0.0000E+00  0.1000E-02  0.1000E-02
    -25.425  0.5589E-08  0.0000E+00  0.1000E-02  0.1000E-02
    -25.325  0.2098E-03  0.0000E+00  0.1021E-02  0.1000E-02
    -25.224  0.7660E-02  0.0000E+00  0.1789E-02  0.1000E-02
    -25.124  0.2101E-02  0.0000E+00  0.2000E-02  0.1000E-02
    -25.024  0.1360E-05  0.0000E+00  0.2000E-02  0.1000E-02
    -24.924  0.4689E-12  0.1901E-10  0.2000E-02  0.1000E-02
    -24.823  0.0000E+00  0.1119E-04  0.2000E-02  0.1001E-02
    -24.723  0.0000E+00  0.4109E-02  0.2000E-02  0.1413E-02
    -24.623  0.0000E+00  0.5808E-02  0.2000E-02  0.1996E-02
    -24.522  0.0000E+00  0.4425E-04  0.2000E-02  0.2000E-02
    -24.422  0.0000E+00  0.2467E-09  0.2000E-02  0.2000E-02
    -24.322  0.0000E+00  0.0000E+00  0.2000E-02  0.2000E-02
    -24.222  0.0000E+00  0.0000E+00  0.2000E-02  0.2000E-02
    -24.121  0.0000E+00  0.0000E+00  0.2000E-02  0.2000E-02
    -24.021  0.0000E+00  0.0000E+00  0.2000E-02  0.2000E-02
    -23.921  0.0000E+00  0.0000E+00  0.2000E-02  0.2000E-02
    -23.820  0.0000E+00  0.0000E+00  0.2000E-02  0.2000E-02
    -23.720  0.0000E+00  0.0000E+00  0.2000E-02  0.2000E-02
    -23.620  0.0000E+00  0.0000E+00  0.2000E-02  0.2000E-02
    -23.520  0.0000E+00  0.0000E+00  0.2000E-02  0.2000E-02
    -23.419  0.0000E+00  0.0000E+00  0.2000E-02  0.2000E-02
    -23.319  0.0000E+00  0.0000E+00  0.2000E-02  0.2000E-02
    -23.219  0.0000E+00  0.0000E+00  0.2000E-02  0.2000E-02
    -23.118  0.0000E+00  0.0000E+00  0.2000E-02  0.2000E-02
    -23.018  0.0000E+00  0.0000E+00  0.2000E-02  0.2000E-02
    -22.918  0.0000E+00  0.0000E+00  0.2000E-02  0.2000E-02
    -22.818  0.0000E+00  0.0000E+00  0.2000E-02  0.2000E-02
    -22.717  0.0000E+00  0.0000E+00  0.2000E-02  0.2000E-02
    -22.617  0.0000E+00  0.0000E+00  0.2000E-02  0.2000E-02
    -22.517  0.0000E+00  0.0000E+00  0.2000E-02  0.2000E-02
    -22.417  0.0000E+00  0.0000E+00  0.2000E-02  0.2000E-02
    -22.316  0.0000E+00  0.0000E+00  0.2000E-02  0.2000E-02
    -22.216  0.0000E+00  0.0000E+00  0.2000E-02  0.2000E-02
    -22.116  0.0000E+00  0.0000E+00  0.2000E-02  0.2000E-02
    -22.015  0.0000E+00  0.0000E+00  0.2000E-02  0.2000E-02
    -21.915  0.0000E+00  0.0000E+00  0.2000E-02  0.2000E-02
    -21.815  0.0000E+00  0.0000E+00  0.2000E-02  0.2000E-02
    -21.715  0.0000E+00  0.0000E+00  0.2000E-02  0.2000E-02
    -21.614  0.0000E+00  0.0000E+00  0.2000E-02  0.2000E-02
    -21.514  0.0000E+00  0.0000E+00  0.2000E-02  0.2000E-02
    -21.414  0.0000E+00  0.0000E+00  0.2000E-02  0.2000E-02
    -21.313  0.0000E+00  0.0000E+00  0.2000E-02  0.2000E-02
    -21.213  0.0000E+00  0.0000E+00  0.2000E-02  0.2000E-02
    -21.113  0.0000E+00  0.0000E+00  0.2000E-02  0.2000E-02
    -21.013  0.0000E+00  0.0000E+00  0.2000E-02  0.2000E-02
    -20.912  0.0000E+00  0.0000E+00  0.2000E-02  0.2000E-02
    -20.812  0.0000E+00  0.0000E+00  0.2000E-02  0.2000E-02
    -20.712  0.0000E+00  0.0000E+00  0.2000E-02  0.2000E-02
    -20.611  0.0000E+00  0.0000E+00  0.2000E-02  0.2000E-02
    -20.511  0.0000E+00  0.0000E+00  0.2000E-02  0.2000E-02
    -20.411  0.0000E+00  0.0000E+00  0.2000E-02  0.2000E-02
    -20.311  0.0000E+00  0.0000E+00  0.2000E-02  0.2000E-02
    -20.210  0.0000E+00  0.0000E+00  0.2000E-02  0.2000E-02
    -20.110  0.0000E+00  0.0000E+00  0.2000E-02  0.2000E-02
    -20.010  0.0000E+00  0.0000E+00  0.2000E-02  0.2000E-02
    -19.910  0.0000E+00  0.0000E+00  0.2000E-02  0.2000E-02
    -19.809  0.0000E+00  0.0000E+00  0.2000E-02  0.2000E-02
    -19.709  0.0000E+00  0.0000E+00  0.2000E-02  0.2000E-02
    -19.609  0.0000E+00  0.0000E+00  0.2000E-02  0.2000E-02
    -19.508  0.0000E+00  0.0000E+00  0.2000E-02  0.2000E-02
    -19.408  0.0000E+00  0.0000E+00  0.2000E-02  0.2000E-02
    -19.308  0.0000E+00  0.0000E+00  0.2000E-02  0.2000E-02
    -19.208  0.0000E+00  0.0000E+00  0.2000E-02  0.2000E-02
    -19.107  0.0000E+00  0.0000E+00  0.2000E-02  0.2000E-02
    -19.007  0.0000E+00  0.0000E+00  0.2000E-02  0.2000E-02
    -18.907  0.0000E+00  0.0000E+00  0.2000E-02  0.2000E-02
    -18.806  0.0000E+00  0.0000E+00  0.2000E-02  0.2000E-02
    -18.706  0.0000E+00  0.0000E+00  0.2000E-02  0.2000E-02
    -18.606  0.0000E+00  0.0000E+00  0.2000E-02  0.2000E-02
    -18.506  0.0000E+00  0.0000E+00  0.2000E-02  0.2000E-02
    -18.405  0.0000E+00  0.0000E+00  0.2000E-02  0.2000E-02
    -18.305  0.0000E+00  0.0000E+00  0.2000E-02  0.2000E-02
    -18.205  0.0000E+00  0.0000E+00  0.2000E-02  0.2000E-02
    -18.104  0.0000E+00  0.0000E+00  0.2000E-02  0.2000E-02
    -18.004  0.0000E+00  0.0000E+00  0.2000E-02  0.2000E-02
    -17.904  0.0000E+00  0.0000E+00  0.2000E-02  0.2000E-02
    -17.804  0.0000E+00  0.0000E+00  0.2000E-02  0.2000E-02
    -17.703  0.0000E+00  0.0000E+00  0.2000E-02  0.2000E-02
    -17.603  0.0000E+00  0.0000E+00  0.2000E-02  0.2000E-02
    -17.503  0.0000E+00  0.0000E+00  0.2000E-02  0.2000E-02
    -17.403  0.0000E+00  0.0000E+00  0.2000E-02  0.2000E-02
    -17.302  0.0000E+00  0.0000E+00  0.2000E-02  0.2000E-02
    -17.202  0.0000E+00  0.0000E+00  0.2000E-02  0.2000E-02
    -17.102  0.1265E-13  0.0000E+00  0.2000E-02  0.2000E-02
    -17.001  0.1553E-06  0.0000E+00  0.2000E-02  0.2000E-02
    -16.901  0.9173E-03  0.0000E+00  0.2092E-02  0.2000E-02
    -16.801  0.8398E-02  0.2176E-15  0.2934E-02  0.2000E-02
    -16.701  0.6561E-03  0.1215E-07  0.3000E-02  0.2000E-02
    -16.600  0.6971E-07  0.3017E-03  0.3000E-02  0.2030E-02
    -16.500  0.3463E-14  0.7988E-02  0.3000E-02  0.2831E-02
    -16.400  0.0000E+00  0.1682E-02  0.3000E-02  0.3000E-02
    -16.299  0.0000E+00  0.7343E-06  0.3000E-02  0.3000E-02
    -16.199  0.0000E+00  0.1652E-12  0.3000E-02  0.3000E-02
    -16.099  0.0000E+00  0.0000E+00  0.3000E-02  0.3000E-02
    -15.999  0.0000E+00  0.0000E+00  0.3000E-02  0.3000E-02
    -15.898  0.0000E+00  0.0000E+00  0.3000E-02  0.3000E-02
    -15.798  0.0000E+00  0.0000E+00  0.3000E-02  0.3000E-02
    -15.698  0.0000E+00  0.0000E+00  0.3000E-02  0.3000E-02
    -15.597  0.0000E+00  0.0000E+00  0.3000E-02  0.3000E-02
    -15.497  0.0000E+00  0.0000E+00  0.3000E-02  0.3000E-02
    -15.397  0.0000E+00  0.0000E+00  0.3000E-02  0.3000E-02
    -15.297  0.0000E+00  0.0000E+00  0.3000E-02  0.3000E-02
    -15.196  0.0000E+00  0.0000E+00  0.3000E-02  0.3000E-02
    -15.096  0.0000E+00  0.0000E+00  0.3000E-02  0.3000E-02
    -14.996  0.0000E+00  0.0000E+00  0.3000E-02  0.3000E-02
    -14.896  0.0000E+00  0.0000E+00  0.3000E-02  0.3000E-02
    -14.795  0.0000E+00  0.0000E+00  0.3000E-02  0.3000E-02
    -14.695  0.0000E+00  0.0000E+00  0.3000E-02  0.3000E-02
    -14.595  0.0000E+00  0.0000E+00  0.3000E-02  0.3000E-02
    -14.494  0.0000E+00  0.0000E+00  0.3000E-02  0.3000E-02
    -14.394  0.0000E+00  0.0000E+00  0.3000E-02  0.3000E-02
    -14.294  0.0000E+00  0.0000E+00  0.3000E-02  0.3000E-02
    -14.194  0.0000E+00  0.0000E+00  0.3000E-02  0.3000E-02
    -14.093  0.0000E+00  0.0000E+00  0.3000E-02  0.3000E-02
    -13.993  0.0000E+00  0.0000E+00  0.3000E-02  0.3000E-02
    -13.893  0.0000E+00  0.0000E+00  0.3000E-02  0.3000E-02
    -13.792  0.0000E+00  0.0000E+00  0.3000E-02  0.3000E-02
    -13.692  0.0000E+00  0.0000E+00  0.3000E-02  0.3000E-02
    -13.592  0.0000E+00  0.0000E+00  0.3000E-02  0.3000E-02
    -13.492  0.0000E+00  0.0000E+00  0.3000E-02  0.3000E-02
    -13.391  0.0000E+00  0.0000E+00  0.3000E-02  0.3000E-02
    -13.291  0.0000E+00  0.0000E+00  0.3000E-02  0.3000E-02
    -13.191  0.0000E+00  0.0000E+00  0.3000E-02  0.3000E-02
    -13.091  0.0000E+00  0.0000E+00  0.3000E-02  0.3000E-02
    -12.990  0.4871E-16  0.0000E+00  0.3000E-02  0.3000E-02
    -12.890  0.5018E-08  0.0000E+00  0.3000E-02  0.3000E-02
    -12.790  0.2504E-03  0.2823E-16  0.3025E-02  0.3000E-02
    -12.689  0.1375E-01  0.3270E-08  0.4404E-02  0.3000E-02
    -12.589  0.5930E-02  0.1623E-03  0.4999E-02  0.3016E-02
    -12.489  0.9462E-05  0.7393E-02  0.5000E-02  0.3758E-02
    -12.389  0.1070E-10  0.2415E-02  0.5000E-02  0.4000E-02
    -12.288  0.0000E+00  0.2033E-05  0.5000E-02  0.4000E-02
    -12.188  0.0000E+00  0.2186E-05  0.5000E-02  0.4000E-02
    -12.088  0.0000E+00  0.2475E-02  0.5000E-02  0.4248E-02
    -11.987  0.1215E-12  0.7340E-02  0.5000E-02  0.4984E-02
    -11.887  0.6115E-06  0.1547E-03  0.5000E-02  0.5000E-02
    -11.787  0.1571E-02  0.2962E-08  0.5158E-02  0.5000E-02
    -11.687  0.8067E-02  0.3672E-10  0.5967E-02  0.5000E-02
    -11.586  0.3339E-03  0.1605E-04  0.6000E-02  0.5002E-02
    -11.486  0.1515E-07  0.4534E-02  0.6000E-02  0.5456E-02
    -11.386  0.3078E-15  0.5390E-02  0.6000E-02  0.5997E-02
    -11.285  0.0000E+00  0.3191E-04  0.6000E-02  0.6000E-02
    -11.185  0.0000E+00  0.1323E-09  0.6000E-02  0.6000E-02
    -11.085  0.0000E+00  0.0000E+00  0.6000E-02  0.6000E-02
    -10.985  0.0000E+00  0.0000E+00  0.6000E-02  0.6000E-02
    -10.884  0.0000E+00  0.0000E+00  0.6000E-02  0.6000E-02
    -10.784  0.0000E+00  0.0000E+00  0.6000E-02  0.6000E-02
    -10.684  0.0000E+00  0.0000E+00  0.6000E-02  0.6000E-02
    -10.584  0.0000E+00  0.0000E+00  0.6000E-02  0.6000E-02
    -10.483  0.0000E+00  0.0000E+00  0.6000E-02  0.6000E-02
    -10.383  0.0000E+00  0.0000E+00  0.6000E-02  0.6000E-02
    -10.283  0.0000E+00  0.0000E+00  0.6000E-02  0.6000E-02
    -10.182  0.0000E+00  0.0000E+00  0.6000E-02  0.6000E-02
    -10.082  0.0000E+00  0.0000E+00  0.6000E-02  0.6000E-02
     -9.982  0.2923E-15  0.0000E+00  0.6000E-02  0.6000E-02
     -9.882  0.1468E-07  0.0000E+00  0.6000E-02  0.6000E-02
     -9.781  0.3291E-03  0.4429E-17  0.6033E-02  0.6000E-02
     -9.681  0.8056E-02  0.9504E-09  0.6841E-02  0.6000E-02
     -9.581  0.1586E-02  0.8823E-04  0.7000E-02  0.6009E-02
     -9.480  0.6279E-06  0.6681E-02  0.7000E-02  0.6679E-02
     -9.380  0.1270E-12  0.3198E-02  0.7000E-02  0.7000E-02
     -9.280  0.0000E+00  0.4808E-05  0.7000E-02  0.7000E-02
     -9.180  0.0000E+00  0.4191E-11  0.7000E-02  0.7000E-02
     -9.079  0.0000E+00  0.0000E+00  0.7000E-02  0.7000E-02
     -8.979  0.0000E+00  0.0000E+00  0.7000E-02  0.7000E-02
     -8.879  0.0000E+00  0.0000E+00  0.7000E-02  0.7000E-02
     -8.778  0.0000E+00  0.0000E+00  0.7000E-02  0.7000E-02
     -8.678  0.0000E+00  0.0000E+00  0.7000E-02  0.7000E-02
     -8.578  0.0000E+00  0.0000E+00  0.7000E-02  0.7000E-02
     -8.478  0.3209E-10  0.0000E+00  0.7000E-02  0.7000E-02
     -8.377  0.1491E-04  0.0000E+00  0.7001E-02  0.7000E-02
     -8.277  0.4446E-02  0.0000E+00  0.7447E-02  0.7000E-02
     -8.177  0.5477E-02  0.0000E+00  0.7997E-02  0.7000E-02
     -8.077  0.3416E-04  0.0000E+00  0.8000E-02  0.7000E-02
     -7.976  0.1505E-09  0.0000E+00  0.8000E-02  0.7000E-02
     -7.876  0.0000E+00  0.0000E+00  0.8000E-02  0.7000E-02
     -7.776  0.0000E+00  0.0000E+00  0.8000E-02  0.7000E-02
     -7.675  0.0000E+00  0.7030E-16  0.8000E-02  0.7000E-02
     -7.575  0.0000E+00  0.5872E-08  0.8000E-02  0.7000E-02
     -7.475  0.0000E+00  0.2147E-03  0.8000E-02  0.7022E-02
     -7.375  0.9832E-11  0.7683E-02  0.8000E-02  0.7792E-02
     -7.274  0.7765E-05  0.2073E-02  0.8001E-02  0.8000E-02
     -7.174  0.3699E-02  0.1309E-05  0.8372E-02  0.8000E-02
     -7.074  0.6205E-02  0.4395E-12  0.8994E-02  0.8000E-02
     -6.973  0.6038E-04  0.1326E-08  0.9000E-02  0.8000E-02
     -6.873  0.1970E-05  0.1042E-03  0.9000E-02  0.8010E-02
     -6.773  0.2389E-02  0.6884E-02  0.9240E-02  0.8701E-02
     -6.673  0.7416E-02  0.2980E-02  0.9983E-02  0.9000E-02
     -6.572  0.1657E-03  0.3846E-05  0.1000E-01  0.9000E-02
     -6.472  0.3416E-08  0.2829E-11  0.1000E-01  0.9000E-02
     -6.372  0.3100E-16  0.0000E+00  0.1000E-01  0.9000E-02
     -6.271  0.0000E+00  0.0000E+00  0.1000E-01  0.9000E-02
     -6.171  0.0000E+00  0.0000E+00  0.1000E-01  0.9000E-02
     -6.071  0.0000E+00  0.0000E+00  0.1000E-01  0.9000E-02
     -5.971  0.0000E+00  0.0000E+00  0.1000E-01  0.9000E-02
     -5.870  0.0000E+00  0.0000E+00  0.1000E-01  0.9000E-02
     -5.770  0.0000E+00  0.0000E+00  0.1000E-01  0.9000E-02
     -5.670  0.0000E+00  0.3326E-13  0.1000E-01  0.9000E-02
     -5.570  0.0000E+00  0.2802E-06  0.1000E-01  0.9000E-02
     -5.469  0.0000E+00  0.1163E-02  0.1000E-01  0.9117E-02
     -5.369  0.0000E+00  0.8310E-02  0.1000E-01  0.9950E-02
     -5.269  0.0000E+00  0.4990E-03  0.1000E-01  0.1000E-01
     -5.168  0.0000E+00  0.3708E-07  0.1000E-01  0.1000E-01
     -5.068  0.0000E+00  0.1262E-14  0.1000E-01  0.1000E-01
     -4.968  0.0000E+00  0.0000E+00  0.1000E-01  0.1000E-01
     -4.868  0.0000E+00  0.0000E+00  0.1000E-01  0.1000E-01
     -4.767  0.0000E+00  0.0000E+00  0.1000E-01  0.1000E-01
     -4.667  0.0000E+00  0.0000E+00  0.1000E-01  0.1000E-01
     -4.567  0.0000E+00  0.0000E+00  0.1000E-01  0.1000E-01
     -4.466  0.0000E+00  0.0000E+00  0.1000E-01  0.1000E-01
     -4.366  0.0000E+00  0.0000E+00  0.1000E-01  0.1000E-01
     -4.266  0.0000E+00  0.0000E+00  0.1000E-01  0.1000E-01
     -4.166  0.0000E+00  0.0000E+00  0.1000E-01  0.1000E-01
     -4.065  0.0000E+00  0.0000E+00  0.1000E-01  0.1000E-01
     -3.965  0.0000E+00  0.0000E+00  0.1000E-01  0.1000E-01
     -3.865  0.0000E+00  0.0000E+00  0.1000E-01  0.1000E-01
     -3.764  0.0000E+00  0.0000E+00  0.1000E-01  0.1000E-01
     -3.664  0.0000E+00  0.0000E+00  0.1000E-01  0.1000E-01
     -3.564  0.0000E+00  0.0000E+00  0.1000E-01  0.1000E-01
     -3.464  0.0000E+00  0.0000E+00  0.1000E-01  0.1000E-01
     -3.363  0.0000E+00  0.0000E+00  0.1000E-01  0.1000E-01
     -3.263  0.0000E+00  0.0000E+00  0.1000E-01  0.1000E-01
     -3.163  0.0000E+00  0.0000E+00  0.1000E-01  0.1000E-01
     -3.063  0.0000E+00  0.0000E+00  0.1000E-01  0.1000E-01
     -2.962  0.0000E+00  0.0000E+00  0.1000E-01  0.1000E-01
     -2.862  0.0000E+00  0.0000E+00  0.1000E-01  0.1000E-01
     -2.762  0.0000E+00  0.0000E+00  0.1000E-01  0.1000E-01
     -2.661  0.0000E+00  0.0000E+00  0.1000E-01  0.1000E-01
     -2.561  0.0000E+00  0.0000E+00  0.1000E-01  0.1000E-01
     -2.461  0.0000E+00  0.0000E+00  0.1000E-01  0.1000E-01
     -2.361  0.0000E+00  0.0000E+00  0.1000E-01  0.1000E-01
     -2.260  0.0000E+00  0.0000E+00  0.1000E-01  0.1000E-01
     -2.160  0.0000E+00  0.0000E+00  0.1000E-01  0.1000E-01
     -2.060  0.0000E+00  0.0000E+00  0.1000E-01  0.1000E-01
     -1.959  0.0000E+00  0.0000E+00  0.1000E-01  0.1000E-01
     -1.859  0.0000E+00  0.0000E+00  0.1000E-01  0.1000E-01
     -1.759  0.0000E+00  0.0000E+00  0.1000E-01  0.1000E-01
     -1.659  0.0000E+00  0.0000E+00  0.1000E-01  0.1000E-01
     -1.558  0.0000E+00  0.0000E+00  0.1000E-01  0.1000E-01
     -1.458  0.0000E+00  0.0000E+00  0.1000E-01  0.1000E-01
     -1.358  0.0000E+00  0.0000E+00  0.1000E-01  0.1000E-01
     -1.258  0.0000E+00  0.0000E+00  0.1000E-01  0.1000E-01
     -1.157  0.0000E+00  0.0000E+00  0.1000E-01  0.1000E-01
     -1.057  0.0000E+00  0.0000E+00  0.1000E-01  0.1000E-01
     -0.957  0.0000E+00  0.0000E+00  0.1000E-01  0.1000E-01
     -0.856  0.3703E-15  0.0000E+00  0.1000E-01  0.1000E-01
     -0.756  0.1706E-07  0.1315E-12  0.1000E-01  0.1000E-01
     -0.656  0.3525E-03  0.6411E-06  0.1004E-01  0.1000E-01
     -0.556  0.8106E-02  0.1599E-02  0.1085E-01  0.1016E-01
     -0.455  0.1513E-02  0.8047E-02  0.1100E-01  0.1097E-01
     -0.355  0.1133E-02  0.3257E-03  0.1111E-01  0.1100E-01
     -0.255  0.8324E-02  0.1265E-02  0.1195E-01  0.1113E-01
     -0.154  0.5152E-03  0.8258E-02  0.1200E-01  0.1195E-01
     -0.054  0.2057E-03  0.6250E-03  0.1202E-01  0.1202E-01
      0.046  0.8809E-02  0.7626E-02  0.1290E-01  0.1278E-01
      0.146  0.2150E-01  0.1990E-01  0.1506E-01  0.1478E-01
      0.247  0.2865E-01  0.3140E-01  0.1793E-01  0.1793E-01
      0.347  0.6712E-03  0.7326E-03  0.1800E-01  0.1800E-01
      0.447  0.2159E-07  0.2455E-07  0.1800E-01  0.1800E-01
      0.548  0.3797E-15  0.4440E-15  0.1800E-01  0.1800E-01
      0.648  0.0000E+00  0.0000E+00  0.1800E-01  0.1800E-01
      0.748  0.0000E+00  0.0000E+00  0.1800E-01  0.1800E-01
      0.848  0.0000E+00  0.0000E+00  0.1800E-01  0.1800E-01
      0.949  0.0000E+00  0.0000E+00  0.1800E-01  0.1800E-01
      1.049  0.0000E+00  0.0000E+00  0.1800E-01  0.1800E-01
      1.149  0.0000E+00  0.0000E+00  0.1800E-01  0.1800E-01
      1.249  0.0000E+00  0.0000E+00  0.1800E-01  0.1800E-01
      1.350  0.0000E+00  0.0000E+00  0.1800E-01  0.1800E-01
      1.450  0.0000E+00  0.0000E+00  0.1800E-01  0.1800E-01
      1.550  0.0000E+00  0.0000E+00  0.1800E-01  0.1800E-01
