    6    6 1000    2
  0.1161622E+02  0.3634412E-09  0.7170850E-09  0.3827208E-09  0.5000000E-15
  1.000000000000000E-004
  CAR 
 Co–organic framework                  
     19      1     18
