    6    6 1000    2
  0.4500000E+04  0.3000000E-08  0.3000000E-08  0.3000000E-08  0.5000000E-15
  1.000000000000000E-004
  CAR 
 Co–organic framework                  
     19      1     18
 
  0.0000000E+00  0.0000000E+00  0.0000000E+00  0.1000000E+01
    1      -27.166118    -26.851522   1.000000   1.000000
    2      -25.252750    -24.715182   1.000000   1.000000
    3      -16.854160    -16.533928   1.000000   1.000000
    4      -12.716406    -12.513528   1.000000   1.000000
    5      -12.700812    -12.063684   1.000000   1.000000
    6      -11.751357    -11.482151   1.000000   1.000000
    7       -9.716279     -9.496857   1.000000   1.000000
    8       -8.272403     -7.403320   1.000000   1.000000
    9       -7.162430     -6.791503   1.000000   1.000000
   10       -6.747887     -5.427114   1.000000   0.000000
   11       -0.591929     -0.520448   0.000000   0.000000
   12       -0.312300     -0.214361   0.000000   0.000000
   13        0.018026      0.020269   0.000000   0.000000
   14        0.088510      0.124812   0.000000   0.000000
   15        0.151324      0.154076   0.000000   0.000000
   16        0.168295      0.168935   0.000000   0.000000
   17        0.170961      0.173564   0.000000   0.000000
   18        0.182350      0.182873   0.000000   0.000000
