    6    6 1000    2
  0.1638644E+03  0.9813847E-09  0.9813847E-09  0.1269558E-08  0.5000000E-15
  1.000000000000000E-004
  CAR 
 Co–organic framework                  
     19      1     18
