 running on   24 total cores
 distrk:  each k-point on   24 cores,    1 groups
 distr:  one band on    4 cores,    6 groups
 using from now: INCAR     
 vasp.5.4.4.18Apr17-6-g9f103f2a35 (build May 21 2019 18:55:53) complex          
  
 POSCAR found type information on POSCAR  Li C  O 
 POSCAR found :  3 types and       6 ions
 WARNING: type information on POSCAR and POTCAR are incompatible
 POTCAR overwrites the type information in POSCAR
 typ   1 type information:  Li O 
 WARNING: type information on POSCAR and POTCAR are incompatible
 POTCAR overwrites the type information in POSCAR
 typ   3 type information:  O  H 

 ----------------------------------------------------------------------------- 
|                                                                             |
|  ADVICE TO THIS USER RUNNING 'VASP/VAMP'   (HEAR YOUR MASTER'S VOICE ...):  |
|                                                                             |
|      You have a (more or less) 'small supercell' and for smaller cells      |
|      it is recommended  to use the reciprocal-space projection scheme!      |
|      The real space optimization is not  efficient for small cells and it   |
|      is also less accurate ...                                              |
|      Therefore set LREAL=.FALSE. in the  INCAR file                         |
|                                                                             |
 ----------------------------------------------------------------------------- 

 LDA part: xc-table for Pade appr. of Perdew
 POSCAR found type information on POSCAR  Li C  O 
 POSCAR found :  3 types and       6 ions
 POSCAR, INCAR and KPOINTS ok, starting setup
 FFT: planning ...
 WAVECAR not read
 WARNING: random wavefunctions but no delay for mixing, default for NELMDL
 entering main loop
       N       E                     dE             d eps       ncg     rms          rms(c)
DAV:   1     0.131661528385E+03    0.13166E+03   -0.93716E+03    72   0.882E+02
DAV:   2    -0.213626160541E+02   -0.15302E+03   -0.14571E+03    78   0.362E+02
DAV:   3    -0.337183288936E+02   -0.12356E+02   -0.12266E+02    96   0.851E+01
DAV:   4    -0.339551564266E+02   -0.23683E+00   -0.23624E+00    90   0.169E+01
DAV:   5    -0.339617323378E+02   -0.65759E-02   -0.65757E-02   114   0.225E+00    0.247E+01
RMM:   6    -0.324458113703E+02    0.15159E+01   -0.26391E+00    72   0.147E+01    0.160E+01
RMM:   7    -0.322597535235E+02    0.18606E+00   -0.52830E-01    72   0.514E+00    0.563E+00
RMM:   8    -0.322563042670E+02    0.34493E-02   -0.56356E-02    72   0.238E+00    0.121E+00
RMM:   9    -0.325522966026E+02   -0.29599E+00   -0.15746E-02    72   0.812E-01    0.301E+00
RMM:  10    -0.322749596087E+02    0.27734E+00   -0.10618E-02    72   0.624E-01    0.348E+00
RMM:  11    -0.324145416504E+02   -0.13958E+00   -0.58345E-03    72   0.640E-01    0.359E+00
RMM:  12    -0.322507216248E+02    0.16382E+00   -0.37331E-03    72   0.504E-01    0.874E-01
RMM:  13    -0.322736077447E+02   -0.22886E-01   -0.49206E-04    72   0.202E-01    0.331E+00
RMM:  14    -0.322540453530E+02    0.19562E-01   -0.22063E-03    72   0.392E-01    0.166E+00
RMM:  15    -0.322513992717E+02    0.26461E-02   -0.82386E-04    72   0.255E-01    0.465E-01
RMM:  16    -0.322558393890E+02   -0.44401E-02   -0.70116E-05    70   0.707E-02    0.177E+00
RMM:  17    -0.322514660060E+02    0.43734E-02   -0.33310E-04    72   0.149E-01    0.714E-01
RMM:  18    -0.322527133233E+02   -0.12473E-02   -0.39997E-04    72   0.163E-01    0.104E+00
RMM:  19    -0.322511323638E+02    0.15810E-02   -0.14449E-04    70   0.101E-01    0.189E-01
RMM:  20    -0.322515110416E+02   -0.37868E-03   -0.69293E-05    68   0.708E-02    0.459E-01
RMM:  21    -0.322511951562E+02    0.31589E-03   -0.13655E-05    60   0.323E-02    0.374E-02
RMM:  22    -0.322512542956E+02   -0.59139E-04   -0.64132E-06    54   0.212E-02    0.155E-01
RMM:  23    -0.322512230890E+02    0.31207E-04   -0.27985E-07    52   0.551E-03    0.453E-02
RMM:  24    -0.322512259398E+02   -0.28508E-05   -0.87692E-07    52   0.809E-03    0.351E-02
RMM:  25    -0.322512250964E+02    0.84341E-06   -0.27682E-07    45   0.430E-03
   1 F= -.32538939E+02 E0= -.32524834E+02  d E =-.325389E+02  mag=    -0.0000
 curvature:   0.00 expect dE= 0.000E+00 dE for cont linesearch  0.000E+00
 trial: gam= 0.00000 g(F)=  0.516E-02 g(S)=  0.120E-01 ort = 0.000E+00 (trialstep = 0.100E+01)
 search vector abs. value=  0.171E-01
 bond charge predicted
       N       E                     dE             d eps       ncg     rms          rms(c)
DAV:   1    -0.322931402393E+02   -0.41914E-01   -0.23448E+00    96   0.182E+01    0.157E+00
RMM:   2    -0.322564716152E+02    0.36669E-01   -0.11474E-01    72   0.348E+00    0.461E-01
RMM:   3    -0.322831558274E+02   -0.26684E-01   -0.62327E-03    72   0.740E-01    0.348E+00
RMM:   4    -0.322595344372E+02    0.23621E-01   -0.11009E-03    73   0.337E-01    0.208E+00
RMM:   5    -0.322614715105E+02   -0.19371E-02   -0.90206E-04    72   0.255E-01    0.238E+00
RMM:   6    -0.322599241135E+02    0.15474E-02   -0.38336E-03    72   0.526E-01    0.209E+00
RMM:   7    -0.322535850697E+02    0.63390E-02   -0.11832E-03    72   0.305E-01    0.188E-01
RMM:   8    -0.322539584422E+02   -0.37337E-03   -0.68723E-05    72   0.840E-02    0.255E-01
RMM:   9    -0.322538963333E+02    0.62109E-04   -0.13840E-05    56   0.315E-02    0.120E-01
RMM:  10    -0.322538780134E+02    0.18320E-04   -0.23175E-06    54   0.147E-02    0.383E-03
RMM:  11    -0.322538862374E+02   -0.82240E-05   -0.34427E-06    54   0.177E-02    0.334E-02
RMM:  12    -0.322538848251E+02    0.14123E-05   -0.26789E-07    47   0.608E-03    0.463E-03
RMM:  13    -0.322538849383E+02   -0.11321E-06   -0.44024E-08    44   0.267E-03
   2 F= -.32546661E+02 E0= -.32532556E+02  d E =-.772219E-02  mag=     0.0000
 trial-energy change:   -0.007722  1 .order   -0.007680   -0.017135    0.001774
 step:   0.9073(harm=  0.9062)  dis= 0.00557  next Energy=   -32.546743 (dE=-0.780E-02)
 bond charge predicted
       N       E                     dE             d eps       ncg     rms          rms(c)
DAV:   1    -0.322547677925E+02   -0.88297E-03   -0.20114E-02    96   0.169E+00    0.143E-01
RMM:   2    -0.322544584155E+02    0.30938E-03   -0.94467E-04    72   0.320E-01    0.401E-02
RMM:   3    -0.322544925113E+02   -0.34096E-04   -0.56290E-05    72   0.711E-02    0.196E-01
RMM:   4    -0.322545837914E+02   -0.91280E-04   -0.60357E-06    64   0.253E-02    0.329E-01
RMM:   5    -0.322544222045E+02    0.16159E-03   -0.12786E-05    72   0.311E-02    0.163E-02
RMM:   6    -0.322544344321E+02   -0.12228E-04   -0.15729E-06    52   0.145E-02    0.525E-03
RMM:   7    -0.322544360707E+02   -0.16386E-05   -0.97844E-06    54   0.246E-02    0.296E-03
RMM:   8    -0.322544367587E+02   -0.68803E-06   -0.20413E-06    54   0.121E-02
   3 F= -.32546739E+02 E0= -.32532635E+02  d E =-.780064E-02  mag=    -0.0000
 curvature:  -0.45 expect dE=-0.281E-01 dE for cont linesearch -0.725E-08
 trial: gam= 3.61636 g(F)=  0.524E-01 g(S)=  0.951E-02 ort =-0.166E-04 (trialstep = 0.588E-01)
 search vector abs. value=  0.286E+00
 bond charge predicted
       N       E                     dE             d eps       ncg     rms          rms(c)
DAV:   1    -0.322588546090E+02   -0.44185E-02   -0.96509E-02    96   0.396E+00    0.382E-01
RMM:   2    -0.322566409703E+02    0.22136E-02   -0.61628E-03    72   0.817E-01    0.119E-01
RMM:   3    -0.322584665718E+02   -0.18256E-02   -0.39963E-04    72   0.178E-01    0.117E+00
RMM:   4    -0.322565851593E+02    0.18814E-02   -0.13063E-04    74   0.111E-01    0.424E-01
RMM:   5    -0.322563978106E+02    0.18735E-03   -0.37392E-05    72   0.510E-02    0.281E-02
RMM:   6    -0.322565022496E+02   -0.10444E-03   -0.14772E-04    72   0.102E-01    0.241E-02
RMM:   7    -0.322565023899E+02   -0.14027E-06   -0.56753E-06    56   0.231E-02
   4 F= -.32550111E+02 E0= -.32536006E+02  d E =-.337150E-02  mag=    -0.0000
 ZBRENT: can't locate minimum, use default step
 trial-energy change:   -0.003372  1 .order   -0.003353   -0.003640   -0.003066
 step:   0.2353(harm=  0.3731)  dis= 0.00459  next Energy=   -32.555248 (dE=-0.851E-02)
 bond charge predicted
       N       E                     dE             d eps       ncg     rms          rms(c)
DAV:   1    -0.322808114907E+02   -0.24309E-01   -0.87426E-01    96   0.119E+01    0.116E+00
RMM:   2    -0.322606696596E+02    0.20142E-01   -0.56780E-02    72   0.247E+00    0.350E-01
RMM:   3    -0.322644447167E+02   -0.37751E-02   -0.33509E-03    72   0.517E-01    0.181E+00
RMM:   4    -0.322671173965E+02   -0.26727E-02   -0.42065E-04    76   0.225E-01    0.223E+00
RMM:   5    -0.322601144773E+02    0.70029E-02   -0.15624E-03    72   0.348E-01    0.928E-01
RMM:   6    -0.322593996769E+02    0.71480E-03   -0.27334E-04    72   0.147E-01    0.644E-02
RMM:   7    -0.322593649882E+02    0.34689E-04   -0.56696E-04    72   0.182E-01    0.381E-01
RMM:   8    -0.322593784326E+02   -0.13444E-04   -0.17124E-04    72   0.106E-01    0.736E-02
RMM:   9    -0.322594094400E+02   -0.31007E-04   -0.42020E-05    66   0.497E-02    0.289E-02
RMM:  10    -0.322594111705E+02   -0.17304E-05   -0.97760E-07    52   0.122E-02    0.915E-03
RMM:  11    -0.322594119045E+02   -0.73409E-06   -0.22045E-06    54   0.136E-02
   5 F= -.32556969E+02 E0= -.32542865E+02  d E =-.102299E-01  mag=    -0.0000
 curvature:  -0.70 expect dE=-0.151E-01 dE for cont linesearch -0.149E-02
 ZBRENT: increasing intervall
 opt :   0.5882  next Energy=   -32.556048 (dE=-0.931E-02)
 bond charge predicted
       N       E                     dE             d eps       ncg     rms          rms(c)
DAV:   1    -0.323379728121E+02   -0.78562E-01   -0.35389E+00    96   0.240E+01    0.237E+00
RMM:   2    -0.322555361812E+02    0.82437E-01   -0.23900E-01    72   0.504E+00    0.716E-01
RMM:   3    -0.322615274079E+02   -0.59912E-02   -0.12256E-02    72   0.991E-01    0.255E+00
RMM:   4    -0.322981348520E+02   -0.36607E-01   -0.12928E-03    75   0.394E-01    0.376E+00
RMM:   5    -0.323361769551E+02   -0.38042E-01   -0.45725E-03    72   0.530E-01    0.380E+00
RMM:   6    -0.322552482459E+02    0.80929E-01   -0.21076E-03    72   0.431E-01    0.199E+00
RMM:   7    -0.323096375635E+02   -0.54389E-01   -0.10748E-03    72   0.231E-01    0.382E+00
RMM:   8    -0.322489919556E+02    0.60646E-01   -0.29894E-03    72   0.490E-01    0.391E-01
RMM:   9    -0.322516562865E+02   -0.26643E-02   -0.13124E-04    72   0.118E-01    0.116E+00
RMM:  10    -0.322509142174E+02    0.74207E-03   -0.62816E-04    72   0.214E-01    0.848E-01
RMM:  11    -0.322509698086E+02   -0.55591E-04   -0.15578E-04    72   0.110E-01    0.841E-01
RMM:  12    -0.322508448716E+02    0.12494E-03   -0.99283E-05    72   0.913E-02    0.792E-01
RMM:  13    -0.322502953891E+02    0.54948E-03   -0.11389E-04    72   0.924E-02    0.471E-01
RMM:  14    -0.322501972208E+02    0.98168E-04   -0.56482E-05    68   0.676E-02    0.349E-01
RMM:  15    -0.322500629272E+02    0.13429E-03   -0.21715E-05    66   0.418E-02    0.141E-01
RMM:  16    -0.322500603268E+02    0.26004E-05   -0.67643E-06    54   0.240E-02    0.106E-01
RMM:  17    -0.322500454914E+02    0.14835E-04   -0.13080E-06    52   0.109E-02    0.227E-02
RMM:  18    -0.322500471070E+02   -0.16156E-05   -0.33220E-07    52   0.529E-03    0.313E-02
RMM:  19    -0.322500456879E+02    0.14191E-05   -0.84671E-08    39   0.283E-03    0.196E-03
RMM:  20    -0.322500458085E+02   -0.12056E-06   -0.52535E-08    38   0.233E-03
   6 F= -.32555636E+02 E0= -.32541532E+02  d E =-.889696E-02  mag=    -0.0000
 curvature:   0.43 expect dE= 0.404E-01 dE for cont linesearch  0.159E-02
 ZBRENT: bracketing found
 ZBRENT: interpolating
 opt :   0.3878  next Energy=   -32.558857 (dE=-0.121E-01)
 bond charge predicted
       N       E                     dE             d eps       ncg     rms          rms(c)
DAV:   1    -0.322852095470E+02   -0.35164E-01   -0.11323E+00    96   0.136E+01    0.130E+00
RMM:   2    -0.322594598110E+02    0.25750E-01   -0.70197E-02    72   0.278E+00    0.386E-01
RMM:   3    -0.322581236977E+02    0.13361E-02   -0.47455E-03    72   0.620E-01    0.264E-01
RMM:   4    -0.323047595429E+02   -0.46636E-01   -0.11811E-03    72   0.290E-01    0.375E+00
RMM:   5    -0.322561826763E+02    0.48577E-01   -0.12418E-03    72   0.307E-01    0.196E-01
RMM:   6    -0.322579990197E+02   -0.18163E-02   -0.34999E-04    72   0.197E-01    0.433E-01
RMM:   7    -0.322582908619E+02   -0.29184E-03   -0.12692E-04    72   0.962E-02    0.571E-01
RMM:   8    -0.322578478276E+02    0.44303E-03   -0.61491E-05    72   0.728E-02    0.401E-02
RMM:   9    -0.322578898651E+02   -0.42037E-04   -0.14852E-05    60   0.356E-02    0.942E-02
RMM:  10    -0.322578767454E+02    0.13120E-04   -0.10010E-06    52   0.106E-02    0.144E-02
RMM:  11    -0.322578797551E+02   -0.30096E-05   -0.10539E-06    52   0.103E-02    0.302E-02
RMM:  12    -0.322578784560E+02    0.12991E-05   -0.67022E-08    46   0.325E-03    0.760E-03
RMM:  13    -0.322578785005E+02   -0.44587E-07   -0.29913E-08    37   0.174E-03
   7 F= -.32558885E+02 E0= -.32544780E+02  d E =-.121458E-01  mag=     0.0000
 curvature:  -0.51 expect dE=-0.165E-01 dE for cont linesearch -0.163E-06
 trial: gam= 0.51751 g(F)=  0.265E-01 g(S)=  0.598E-02 ort = 0.303E-03 (trialstep = 0.125E+00)
 search vector abs. value=  0.109E+00
 bond charge predicted
       N       E                     dE             d eps       ncg     rms          rms(c)
DAV:   1    -0.322632971801E+02   -0.54187E-02   -0.24806E-01    96   0.587E+00    0.439E-01
RMM:   2    -0.322603042375E+02    0.29929E-02   -0.98324E-03    72   0.994E-01    0.139E-01
RMM:   3    -0.322608187617E+02   -0.51452E-03   -0.60677E-04    72   0.243E-01    0.743E-01
RMM:   4    -0.322617681832E+02   -0.94942E-03   -0.68019E-05    72   0.820E-02    0.112E+00
RMM:   5    -0.322598811830E+02    0.18870E-02   -0.16938E-04    72   0.107E-01    0.902E-02
RMM:   6    -0.322599993585E+02   -0.11818E-03   -0.22365E-05    72   0.495E-02    0.204E-02
RMM:   7    -0.322600122419E+02   -0.12883E-04   -0.11467E-04    72   0.819E-02    0.543E-03
RMM:   8    -0.322600240084E+02   -0.11767E-04   -0.24044E-05    60   0.395E-02    0.688E-03
RMM:   9    -0.322600238245E+02    0.18398E-06   -0.86709E-07    52   0.973E-03
   8 F= -.32562423E+02 E0= -.32548318E+02  d E =-.353758E-02  mag=     0.0000
 trial-energy change:   -0.003538  1 .order   -0.003536   -0.004063   -0.003008
 step:   0.4799(harm=  0.4799)  dis= 0.00712  next Energy=   -32.566709 (dE=-0.782E-02)
 bond charge predicted
       N       E                     dE             d eps       ncg     rms          rms(c)
DAV:   1    -0.322874505028E+02   -0.27426E-01   -0.20201E+00    84   0.167E+01    0.127E+00
RMM:   2    -0.322627256180E+02    0.24725E-01   -0.83121E-02    72   0.287E+00    0.418E-01
RMM:   3    -0.322774284858E+02   -0.14703E-01   -0.47075E-03    72   0.673E-01    0.299E+00
RMM:   4    -0.322676471290E+02    0.97814E-02   -0.70897E-04    72   0.275E-01    0.224E+00
RMM:   5    -0.322617396481E+02    0.59075E-02   -0.79808E-04    72   0.242E-01    0.145E+00
RMM:   6    -0.322622140816E+02   -0.47443E-03   -0.36342E-03    72   0.519E-01    0.124E+00
RMM:   7    -0.322603415501E+02    0.18725E-02   -0.68199E-04    72   0.234E-01    0.318E-01
RMM:   8    -0.322603458321E+02   -0.42821E-05   -0.47786E-05    72   0.642E-02    0.231E-02
RMM:   9    -0.322603469429E+02   -0.11107E-05   -0.15501E-05    58   0.328E-02    0.338E-02
RMM:  10    -0.322603472375E+02   -0.29468E-06   -0.55193E-06    54   0.197E-02
   9 F= -.32566743E+02 E0= -.32552638E+02  d E =-.785751E-02  mag=     0.0001
 curvature:  -0.80 expect dE=-0.232E-01 dE for cont linesearch -0.222E-06
 trial: gam= 0.88124 g(F)=  0.187E-01 g(S)=  0.101E-01 ort = 0.174E-03 (trialstep = 0.188E+00)
 search vector abs. value=  0.114E+00
 bond charge predicted
       N       E                     dE             d eps       ncg     rms          rms(c)
DAV:   1    -0.322679528822E+02   -0.76059E-02   -0.35065E-01    84   0.678E+00    0.541E-01
RMM:   2    -0.322637189070E+02    0.42340E-02   -0.13025E-02    72   0.115E+00    0.473E-01
RMM:   3    -0.323597934212E+02   -0.96075E-01   -0.19057E-03    72   0.324E-01    0.371E+00
RMM:   4    -0.322620024501E+02    0.97791E-01   -0.20296E-03    72   0.341E-01    0.777E-01
RMM:   5    -0.322771935087E+02   -0.15191E-01   -0.70728E-04    72   0.255E-01    0.285E+00
RMM:   6    -0.322635928302E+02    0.13601E-01   -0.46190E-04    72   0.203E-01    0.113E+00
RMM:   7    -0.322629405090E+02    0.65232E-03   -0.88239E-04    72   0.259E-01    0.240E-01
RMM:   8    -0.322629297908E+02    0.10718E-04   -0.27255E-05    68   0.573E-02    0.141E-01
RMM:   9    -0.322629518628E+02   -0.22072E-04   -0.11587E-05    57   0.299E-02    0.200E-01
RMM:  10    -0.322628963441E+02    0.55519E-04   -0.75379E-07    52   0.101E-02    0.275E-03
RMM:  11    -0.322629052984E+02   -0.89543E-05   -0.49037E-06    54   0.171E-02    0.215E-02
RMM:  12    -0.322629048711E+02    0.42728E-06   -0.83751E-08    44   0.349E-03
  10 F= -.32571355E+02 E0= -.32557250E+02  d E =-.461226E-02  mag=    -0.0000
 trial-energy change:   -0.004612  1 .order   -0.004618   -0.005432   -0.003803
 step:   0.6258(harm=  0.6258)  dis= 0.00946  next Energy=   -32.575801 (dE=-0.906E-02)
 bond charge predicted
       N       E                     dE             d eps       ncg     rms          rms(c)
DAV:   1    -0.322907318039E+02   -0.27827E-01   -0.19268E+00    84   0.159E+01    0.128E+00
RMM:   2    -0.322657157612E+02    0.25016E-01   -0.74087E-02    72   0.274E+00    0.455E-01
RMM:   3    -0.322696994380E+02   -0.39837E-02   -0.43044E-03    72   0.642E-01    0.206E+00
RMM:   4    -0.322813108627E+02   -0.11611E-01   -0.48756E-04    74   0.229E-01    0.309E+00
RMM:   5    -0.322686459365E+02    0.12665E-01   -0.18616E-03    72   0.349E-01    0.216E+00
RMM:   6    -0.322639775141E+02    0.46684E-02   -0.55614E-04    72   0.244E-01    0.104E+00
RMM:   7    -0.322629459162E+02    0.10316E-02   -0.96064E-05    72   0.106E-01    0.502E-01
RMM:   8    -0.322626410751E+02    0.30484E-03   -0.18267E-05    72   0.463E-02    0.530E-02
RMM:   9    -0.322626556391E+02   -0.14564E-04   -0.13671E-05    60   0.350E-02    0.506E-02
RMM:  10    -0.322626524203E+02    0.32188E-05   -0.81064E-07    52   0.109E-02    0.297E-03
RMM:  11    -0.322626538300E+02   -0.14097E-05   -0.15083E-07    46   0.512E-03    0.300E-02
RMM:  12    -0.322626527012E+02    0.11288E-05   -0.85921E-08    46   0.305E-03    0.269E-03
RMM:  13    -0.322626528298E+02   -0.12870E-06   -0.63048E-08    42   0.244E-03
  11 F= -.32575950E+02 E0= -.32561845E+02  d E =-.920733E-02  mag=    -0.0000
 curvature:  -1.23 expect dE=-0.404E-01 dE for cont linesearch -0.448E-05
 trial: gam= 1.11817 g(F)=  0.204E-01 g(S)=  0.124E-01 ort = 0.644E-03 (trialstep = 0.178E+00)
 search vector abs. value=  0.177E+00
 bond charge predicted
       N       E                     dE             d eps       ncg     rms          rms(c)
DAV:   1    -0.322717039841E+02   -0.90513E-02   -0.57632E-01    84   0.806E+00    0.526E-01
RMM:   2    -0.322672354026E+02    0.44686E-02   -0.14500E-02    72   0.118E+00    0.202E-01
RMM:   3    -0.322733201009E+02   -0.60847E-02   -0.10365E-03    72   0.320E-01    0.210E+00
RMM:   4    -0.322671070351E+02    0.62131E-02   -0.31018E-04    72   0.174E-01    0.885E-01
RMM:   5    -0.322660179172E+02    0.10891E-02   -0.26677E-04    72   0.133E-01    0.159E-01
RMM:   6    -0.322663607160E+02   -0.34280E-03   -0.52310E-04    72   0.202E-01    0.167E-01
RMM:   7    -0.322663304568E+02    0.30259E-04   -0.41380E-05    72   0.552E-02    0.877E-02
RMM:   8    -0.322663323463E+02   -0.18895E-05   -0.12885E-05    58   0.320E-02    0.375E-02
RMM:   9    -0.322663311498E+02    0.11965E-05   -0.59638E-07    52   0.866E-03    0.810E-03
RMM:  10    -0.322663311466E+02    0.31780E-08   -0.96651E-07    52   0.853E-03
  12 F= -.32581314E+02 E0= -.32567209E+02  d E =-.536356E-02  mag=    -0.0000
 ZBRENT: can't locate minimum, use default step
 trial-energy change:   -0.005364  1 .order   -0.005372   -0.005943   -0.004800
 step:   0.7103(harm=  0.9234)  dis= 0.01396  next Energy=   -32.591401 (dE=-0.155E-01)
 bond charge predicted
       N       E                     dE             d eps       ncg     rms          rms(c)
DAV:   1    -0.323209956949E+02   -0.54665E-01   -0.52270E+00    84   0.244E+01    0.163E+00
RMM:   2    -0.322790179818E+02    0.41978E-01   -0.14031E-01    72   0.365E+00    0.592E-01
RMM:   3    -0.322745156660E+02    0.45023E-02   -0.82054E-03    72   0.899E-01    0.118E+00
RMM:   4    -0.323796185235E+02   -0.10510E+00   -0.21378E-03    72   0.331E-01    0.369E+00
RMM:   5    -0.323239766089E+02    0.55642E-01   -0.57754E-03    72   0.574E-01    0.387E+00
RMM:   6    -0.322800524551E+02    0.43924E-01   -0.29950E-03    72   0.507E-01    0.253E+00
RMM:   7    -0.322766045756E+02    0.34479E-02   -0.12623E-03    72   0.344E-01    0.204E+00
RMM:   8    -0.322762043922E+02    0.40018E-03   -0.72519E-04    72   0.240E-01    0.196E+00
RMM:   9    -0.322725339392E+02    0.36705E-02   -0.72371E-04    72   0.240E-01    0.120E+00
RMM:  10    -0.322718567896E+02    0.67715E-03   -0.40000E-04    72   0.182E-01    0.886E-01
RMM:  11    -0.322708920423E+02    0.96475E-03   -0.14372E-04    72   0.112E-01    0.216E-01
RMM:  12    -0.322709873960E+02   -0.95354E-04   -0.26422E-05    66   0.487E-02    0.273E-01
RMM:  13    -0.322708831660E+02    0.10423E-03   -0.29379E-06    54   0.169E-02    0.322E-02
RMM:  14    -0.322708979754E+02   -0.14809E-04   -0.25580E-06    54   0.145E-02    0.793E-02
RMM:  15    -0.322708890627E+02    0.89127E-05   -0.19628E-07    47   0.476E-03    0.737E-03
RMM:  16    -0.322708899515E+02   -0.88880E-06   -0.27989E-07    50   0.523E-03
  13 F= -.32590935E+02 E0= -.32576830E+02  d E =-.149850E-01  mag=    -0.0000
 curvature:  -2.24 expect dE=-0.502E-01 dE for cont linesearch -0.105E-02
 ZBRENT: increasing intervall
 opt :   1.7758  next Energy=   -32.581507 (dE=-0.556E-02)
 bond charge predicted
       N       E                     dE             d eps       ncg     rms          rms(c)
DAV:   1    -0.324690033229E+02   -0.19811E+00   -0.21293E+01    84   0.498E+01    0.350E+00
RMM:   2    -0.322897989604E+02    0.17920E+00   -0.64741E-01    72   0.784E+00    0.129E+00
RMM:   3    -0.322666460154E+02    0.23153E-01   -0.30130E-02    72   0.169E+00    0.187E+00
RMM:   4    -0.325385175477E+02   -0.27187E+00   -0.13519E-02    72   0.837E-01    0.306E+00
RMM:   5    -0.326160640548E+02   -0.77547E-01   -0.42601E-02    72   0.129E+00    0.312E+00
RMM:   6    -0.324304871803E+02    0.18558E+00   -0.52967E-03    72   0.698E-01    0.358E+00
RMM:   7    -0.326195504076E+02   -0.18906E+00   -0.29780E-02    72   0.107E+00    0.287E+00
RMM:   8    -0.324614257487E+02    0.15812E+00   -0.40581E-03    72   0.588E-01    0.347E+00
RMM:   9    -0.323677066184E+02    0.93719E-01   -0.10335E-02    72   0.646E-01    0.380E+00
RMM:  10    -0.324236382883E+02   -0.55932E-01   -0.10829E-02    72   0.762E-01    0.362E+00
RMM:  11    -0.322558186190E+02    0.16782E+00   -0.37814E-03    72   0.500E-01    0.136E+00
RMM:  12    -0.322994338898E+02   -0.43615E-01   -0.24518E-04    72   0.129E-01    0.387E+00
RMM:  13    -0.322555992635E+02    0.43835E-01   -0.78675E-04    72   0.216E-01    0.153E+00
RMM:  14    -0.323597376819E+02   -0.10414E+00   -0.32339E-03    72   0.444E-01    0.383E+00
RMM:  15    -0.322588154760E+02    0.10092E+00   -0.19229E-03    72   0.371E-01    0.204E+00
RMM:  16    -0.322650974805E+02   -0.62820E-02   -0.45171E-05    68   0.684E-02    0.269E+00
RMM:  17    -0.322552197561E+02    0.98777E-02   -0.35292E-05    70   0.407E-02    0.121E+00
RMM:  18    -0.322688815224E+02   -0.13662E-01   -0.13854E-04    72   0.104E-01    0.296E+00
RMM:  19    -0.322533062691E+02    0.15575E-01   -0.18618E-04    72   0.117E-01    0.324E-01
RMM:  20    -0.322655853041E+02   -0.12279E-01   -0.31825E-04    72   0.163E-01    0.268E+00
RMM:  21    -0.322534570864E+02    0.12128E-01   -0.22372E-04    72   0.136E-01    0.831E-02
RMM:  22    -0.322598575102E+02   -0.64004E-02   -0.24522E-04    72   0.147E-01    0.199E+00
RMM:  23    -0.322539137978E+02    0.59437E-02   -0.11405E-04    72   0.100E-01    0.247E-01
RMM:  24    -0.322561937131E+02   -0.22799E-02   -0.90046E-05    70   0.914E-02    0.121E+00
RMM:  25    -0.322543236102E+02    0.18701E-02   -0.21995E-05    66   0.453E-02    0.404E-01
RMM:  26    -0.322547617203E+02   -0.43811E-03   -0.16251E-05    64   0.392E-02    0.627E-01
RMM:  27    -0.322543208285E+02    0.44089E-03   -0.16865E-06    53   0.119E-02    0.241E-01
RMM:  28    -0.322543148742E+02    0.59542E-05   -0.74532E-06    56   0.258E-02    0.132E-01
RMM:  29    -0.322543093736E+02    0.55006E-05   -0.40300E-06    54   0.190E-02    0.440E-02
RMM:  30    -0.322543134438E+02   -0.40701E-05   -0.10721E-06    52   0.113E-02    0.444E-02
RMM:  31    -0.322543120290E+02    0.14148E-05   -0.10656E-06    52   0.113E-02    0.942E-03
RMM:  32    -0.322543119701E+02    0.58842E-07   -0.56148E-08    39   0.367E-03
  14 F= -.32584417E+02 E0= -.32570312E+02  d E =-.846695E-02  mag=     0.0000
 curvature:  20.16 expect dE= 0.261E+01 dE for cont linesearch  0.549E-01
 ZBRENT: bracketing found
 ZBRENT: interpolating
 opt :   1.0224  next Energy=   -32.592354 (dE=-0.164E-01)
 bond charge predicted
       N       E                     dE             d eps       ncg     rms          rms(c)
DAV:   1    -0.323688636905E+02   -0.11455E+00   -0.10650E+01    72   0.347E+01    0.225E+00
RMM:   2    -0.322874965474E+02    0.81367E-01   -0.25565E-01    72   0.513E+00    0.840E-01
RMM:   3    -0.323293928315E+02   -0.41896E-01   -0.21514E-02    72   0.147E+00    0.386E+00
RMM:   4    -0.323474011266E+02   -0.18008E-01   -0.16992E-03    73   0.430E-01    0.384E+00
RMM:   5    -0.325872675365E+02   -0.23987E+00   -0.65697E-03    72   0.599E-01    0.310E+00
RMM:   6    -0.329096323075E+02   -0.32236E+00   -0.14950E-02    72   0.746E-01    0.165E+00
RMM:   7    -0.320202512377E+02    0.88938E+00   -0.21404E-01    72   0.265E+00    0.716E-01
RMM:   8    -0.330532386653E+02   -0.10330E+01   -0.45969E-01    72   0.237E+00    0.385E-01
RMM:   9    -0.330416872254E+02    0.11551E-01   -0.31001E-02    72   0.102E+00    0.673E-01
RMM:  10    -0.330648169644E+02   -0.23130E-01   -0.36842E-03    72   0.526E-01    0.340E-01
RMM:  11    -0.330759902761E+02   -0.11173E-01   -0.45945E-03    72   0.479E-01    0.676E-02
RMM:  12    -0.330762553402E+02   -0.26506E-03   -0.65715E-04    72   0.220E-01    0.430E-02
RMM:  13    -0.330759123602E+02    0.34298E-03   -0.12907E-04    72   0.879E-02    0.454E-02
RMM:  14    -0.330762889048E+02   -0.37654E-03   -0.10453E-04    70   0.710E-02    0.200E-02
RMM:  15    -0.330764772706E+02   -0.18837E-03   -0.15101E-04    65   0.711E-02    0.644E-03
RMM:  16    -0.330764815970E+02   -0.43264E-05   -0.80353E-06    59   0.210E-02    0.522E-03
RMM:  17    -0.330764815913E+02    0.57148E-08   -0.66450E-07    52   0.719E-03
  15 F= -.33399475E+02 E0= -.33399475E+02  d E =-.823525E+00  mag=     1.0001
 curvature:  -0.52 expect dE=-0.325E-01 dE for cont linesearch -0.112E-02
 ZBRENT: interpolating
 opt :   0.8096  next Energy=   -32.591386 (dE=-0.154E-01)
 bond charge predicted
       N       E                     dE             d eps       ncg     rms          rms(c)
DAV:   1    -0.330871537769E+02   -0.10672E-01   -0.83656E-01    78   0.985E+00    0.611E-01
RMM:   2    -0.330822943582E+02    0.48594E-02   -0.22704E-02    72   0.148E+00    0.231E-01
RMM:   3    -0.330819642617E+02    0.33010E-03   -0.33345E-03    72   0.565E-01    0.106E-01
RMM:   4    -0.330815409326E+02    0.42333E-03   -0.10876E-03    72   0.251E-01    0.419E-02
RMM:   5    -0.330817948830E+02   -0.25395E-03   -0.40781E-04    72   0.170E-01    0.257E-02
RMM:   6    -0.330818138749E+02   -0.18992E-04   -0.40437E-05    72   0.548E-02    0.120E-02
RMM:   7    -0.330818166193E+02   -0.27445E-05   -0.40125E-06    65   0.224E-02    0.619E-03
RMM:   8    -0.330818179867E+02   -0.13674E-05   -0.42723E-06    59   0.152E-02    0.236E-03
RMM:   9    -0.330818190452E+02   -0.10585E-05   -0.76476E-07    51   0.822E-03    0.108E-03
RMM:  10    -0.330818188606E+02    0.18461E-06   -0.11036E-07    49   0.385E-03
  16 F= -.33402793E+02 E0= -.33402793E+02  d E =-.826843E+00  mag=     1.0000
 curvature:  -0.21 expect dE=-0.924E-02 dE for cont linesearch -0.177E-03
 ZBRENT: interpolating
 opt :   0.7527  next Energy=   -32.591128 (dE=-0.152E-01)
 bond charge predicted
       N       E                     dE             d eps       ncg     rms          rms(c)
DAV:   1    -0.330833164524E+02   -0.14974E-02   -0.59552E-02    78   0.263E+00    0.163E-01
RMM:   2    -0.330830600599E+02    0.25639E-03   -0.16678E-03    72   0.396E-01    0.618E-02
RMM:   3    -0.330830036310E+02    0.56429E-04   -0.20340E-04    72   0.146E-01    0.284E-02
RMM:   4    -0.330829833291E+02    0.20302E-04   -0.71135E-05    72   0.639E-02    0.112E-02
RMM:   5    -0.330829908811E+02   -0.75520E-05   -0.21563E-05    71   0.422E-02    0.682E-03
RMM:   6    -0.330829917265E+02   -0.84545E-06   -0.21787E-06    55   0.134E-02
  17 F= -.33403425E+02 E0= -.33403425E+02  d E =-.827475E+00  mag=     1.0000
 curvature:  -0.23 expect dE=-0.917E-02 dE for cont linesearch -0.139E-03
 ZBRENT: interpolating
 opt :   0.7301  next Energy=   -32.591025 (dE=-0.151E-01)
 bond charge predicted
       N       E                     dE             d eps       ncg     rms          rms(c)
DAV:   1    -0.330834804652E+02   -0.48958E-03   -0.93635E-03    84   0.105E+00    0.643E-02
RMM:   2    -0.330834394737E+02    0.40992E-04   -0.25995E-04    72   0.157E-01    0.244E-02
RMM:   3    -0.330834296205E+02    0.98532E-05   -0.31390E-05    72   0.573E-02    0.112E-02
RMM:   4    -0.330834265718E+02    0.30486E-05   -0.10855E-05    72   0.250E-02    0.451E-03
RMM:   5    -0.330834275253E+02   -0.95351E-06   -0.30404E-06    55   0.163E-02
  18 F= -.33403646E+02 E0= -.33403646E+02  d E =-.827696E+00  mag=     1.0000
 curvature:  -0.15 expect dE=-0.571E-02 dE for cont linesearch -0.769E-04
 ZBRENT: interpolating
 opt :   0.7200  next Energy=   -32.590979 (dE=-0.150E-01)
 bond charge predicted
       N       E                     dE             d eps       ncg     rms          rms(c)
DAV:   1    -0.330836288476E+02   -0.20228E-03   -0.18885E-03    72   0.471E-01    0.287E-02
RMM:   2    -0.330836206716E+02    0.81760E-05   -0.52859E-05    72   0.701E-02    0.110E-02
RMM:   3    -0.330836184756E+02    0.21960E-05   -0.63905E-06    72   0.259E-02    0.505E-03
RMM:   4    -0.330836179508E+02    0.52472E-06   -0.21411E-06    55   0.114E-02    0.193E-03
RMM:   5    -0.330836179428E+02    0.80549E-08   -0.82141E-07    51   0.919E-03
  19 F= -.33403740E+02 E0= -.33403740E+02  d E =-.827790E+00  mag=     1.0000
 curvature:  -0.08 expect dE=-0.320E-02 dE for cont linesearch -0.409E-04
 ZBRENT: interpolating
 opt :   0.7151  next Energy=   -32.590957 (dE=-0.150E-01)
 bond charge predicted
       N       E                     dE             d eps       ncg     rms          rms(c)
DAV:   1    -0.330837103729E+02   -0.92422E-04   -0.42760E-04    84   0.224E-01    0.136E-02
RMM:   2    -0.330837085059E+02    0.18670E-05   -0.11907E-05    72   0.334E-02    0.520E-03
RMM:   3    -0.330837079901E+02    0.51578E-06   -0.12232E-06    51   0.121E-02    0.244E-03
RMM:   4    -0.330837078564E+02    0.13373E-06   -0.61092E-07    48   0.703E-03    0.958E-04
RMM:   5    -0.330837078718E+02   -0.15474E-07   -0.22874E-07    48   0.572E-03
  20 F= -.33403784E+02 E0= -.33403784E+02  d E =-.827834E+00  mag=     1.0000
 curvature:  -0.04 expect dE=-0.169E-02 dE for cont linesearch -0.205E-04
 ZBRENT: interpolating
 opt :   0.7127  next Energy=   -33.403795 (dE=-0.828E+00)
 bond charge predicted
       N       E                     dE             d eps       ncg     rms          rms(c)
DAV:   1    -0.330837520445E+02   -0.44188E-04   -0.10270E-04    72   0.111E-01    0.667E-03
RMM:   2    -0.330837516107E+02    0.43374E-06   -0.26456E-06    54   0.163E-02    0.249E-03
RMM:   3    -0.330837514857E+02    0.12505E-06   -0.37895E-07    46   0.692E-03    0.126E-03
RMM:   4    -0.330837514452E+02    0.40494E-07   -0.20144E-07    45   0.451E-03    0.660E-04
RMM:   5    -0.330837514430E+02    0.21867E-08   -0.46562E-08    45   0.294E-03
  21 F= -.33403805E+02 E0= -.33403805E+02  d E =-.827855E+00  mag=     1.0000
 curvature:  -0.02 expect dE=-0.877E-03 dE for cont linesearch -0.105E-04
 ZBRENT: bisectioning
 opt :   0.7115  next Energy=   -33.403816 (dE=-0.828E+00)
 bond charge predicted
       N       E                     dE             d eps       ncg     rms          rms(c)
DAV:   1    -0.330837734556E+02   -0.22010E-04   -0.25890E-05    84   0.551E-02    0.338E-03
RMM:   2    -0.330837733671E+02    0.88512E-07   -0.67989E-07    44   0.836E-03    0.124E-03
RMM:   3    -0.330837733378E+02    0.29360E-07   -0.11094E-07    42   0.394E-03    0.664E-04
RMM:   4    -0.330837733216E+02    0.16146E-07   -0.65305E-08    41   0.277E-03    0.342E-04
RMM:   5    -0.330837733204E+02    0.12635E-08   -0.15171E-08    35   0.189E-03
  22 F= -.33403815E+02 E0= -.33403815E+02  d E =-.827865E+00  mag=     1.0000
 curvature:  -0.02 expect dE=-0.888E-03 dE for cont linesearch -0.106E-04
 ZBRENT: bisectioning
 opt :   0.7109  next Energy=   -33.403821 (dE=-0.828E+00)
 bond charge predicted
       N       E                     dE             d eps       ncg     rms          rms(c)
DAV:   1    -0.330837842719E+02   -0.10950E-04   -0.64359E-06    72   0.275E-02    0.169E-03
RMM:   2    -0.330837842582E+02    0.13660E-07   -0.16750E-07    42   0.418E-03    0.617E-04
RMM:   3    -0.330837842459E+02    0.12333E-07   -0.27631E-08    38   0.197E-03    0.331E-04
RMM:   4    -0.330837842418E+02    0.40595E-08   -0.11532E-08    27   0.139E-03    0.148E-04
RMM:   5    -0.330837842381E+02    0.37310E-08   -0.13868E-09    18   0.106E-03
  23 F= -.33403821E+02 E0= -.33403821E+02  d E =-.827871E+00  mag=     1.0000
 curvature:  -0.01 expect dE=-0.446E-03 dE for cont linesearch -0.529E-05
 ZBRENT: bisectioning
 opt :   0.7106  next Energy=   -33.403823 (dE=-0.828E+00)
 bond charge predicted
       N       E                     dE             d eps       ncg     rms          rms(c)
DAV:   1    -0.330837896952E+02   -0.54534E-05   -0.14572E-06    54   0.138E-02    0.829E-04
RMM:   2    -0.330837896936E+02    0.16055E-08   -0.11355E-07    39   0.467E-03    0.349E-04
RMM:   3    -0.330837896978E+02   -0.42255E-08   -0.18672E-08    32   0.167E-03    0.240E-04
RMM:   4    -0.330837896924E+02    0.53801E-08   -0.29132E-09    22   0.115E-03    0.116E-04
RMM:   5    -0.330837896927E+02   -0.30650E-09   -0.36225E-10    14   0.816E-04
  24 F= -.33403823E+02 E0= -.33403823E+02  d E =-.827873E+00  mag=     1.0000
 curvature:  -0.01 expect dE=-0.224E-03 dE for cont linesearch -0.264E-05
 ZBRENT: bisectioning
 opt :   0.7105  next Energy=   -33.403825 (dE=-0.828E+00)
 bond charge predicted
       N       E                     dE             d eps       ncg     rms          rms(c)
DAV:   1    -0.330837924177E+02   -0.27253E-05   -0.32705E-07    36   0.681E-03    0.398E-04
RMM:   2    -0.330837924183E+02   -0.60504E-09   -0.49440E-08    36   0.357E-03    0.159E-04
RMM:   3    -0.330837924205E+02   -0.21341E-08   -0.60553E-09    25   0.121E-03    0.105E-04
RMM:   4    -0.330837924186E+02    0.18897E-08    0.00000E+00    11   0.926E-04    0.438E-05
RMM:   5    -0.330837924196E+02   -0.98089E-09    0.00000E+00    12   0.949E-04
  25 F= -.33403825E+02 E0= -.33403825E+02  d E =-.827875E+00  mag=     1.0000
 curvature:  -0.00 expect dE=-0.112E-03 dE for cont linesearch -0.131E-05
 ZBRENT: bisectioning
 opt :   0.7104  next Energy=   -33.403825 (dE=-0.828E+00)
 bond charge predicted
       N       E                     dE             d eps       ncg     rms          rms(c)
DAV:   1    -0.330837937820E+02   -0.13634E-05   -0.97282E-08    36   0.349E-03    0.200E-04
RMM:   2    -0.330837937819E+02    0.68667E-10   -0.13753E-08    34   0.203E-03    0.794E-05
RMM:   3    -0.330837937828E+02   -0.87789E-09    0.00000E+00    10   0.695E-04    0.462E-05
RMM:   4    -0.330837937835E+02   -0.70531E-09    0.00000E+00     8   0.680E-04    0.172E-05
RMM:   5    -0.330837937838E+02   -0.31264E-09    0.00000E+00     8   0.676E-04
  26 F= -.33403825E+02 E0= -.33403825E+02  d E =-.827875E+00  mag=     1.0000
 curvature:  -0.00 expect dE=-0.562E-04 dE for cont linesearch -0.657E-06
 ZBRENT: bisectioning
 opt :   0.7104  next Energy=   -33.403826 (dE=-0.828E+00)
 bond charge predicted
       N       E                     dE             d eps       ncg     rms          rms(c)
DAV:   1    -0.330837944659E+02   -0.68238E-06   -0.31385E-08    36   0.220E-03    0.133E-04
RMM:   2    -0.330837944640E+02    0.18695E-08   -0.42711E-09    26   0.124E-03    0.421E-05
RMM:   3    -0.330837944644E+02   -0.40382E-09    0.00000E+00     7   0.681E-04    0.248E-05
RMM:   4    -0.330837944641E+02    0.29877E-09   -0.74659E-10     7   0.670E-04    0.185E-05
RMM:   5    -0.330837944644E+02   -0.29763E-09    0.00000E+00     3   0.534E-04
  27 F= -.33403826E+02 E0= -.33403826E+02  d E =-.827876E+00  mag=     1.0000
 curvature:  -0.00 expect dE=-0.282E-04 dE for cont linesearch -0.329E-06
 ZBRENT: bisectioning
 opt :   0.7103  next Energy=   -33.403826 (dE=-0.828E+00)
 bond charge predicted
       N       E                     dE             d eps       ncg     rms          rms(c)
DAV:   1    -0.330837948054E+02   -0.34127E-06   -0.95735E-09    36   0.115E-03    0.676E-05
RMM:   2    -0.330837948046E+02    0.77489E-09    0.00000E+00     8   0.650E-04    0.344E-05
RMM:   3    -0.330837948042E+02    0.35106E-09    0.00000E+00     2   0.675E-04    0.173E-05
RMM:   4    -0.330837948036E+02    0.59026E-09    0.00000E+00     2   0.684E-04    0.759E-06
RMM:   5    -0.330837948036E+02    0.89130E-10    0.00000E+00     2   0.688E-04
  28 F= -.33403826E+02 E0= -.33403826E+02  d E =-.827876E+00  mag=     1.0000
 curvature:  -0.00 expect dE=-0.141E-04 dE for cont linesearch -0.165E-06
 ZBRENT: bisectioning
 opt :   0.7103  next Energy=   -33.403826 (dE=-0.828E+00)
 bond charge predicted
       N       E                     dE             d eps       ncg     rms          rms(c)
DAV:   1    -0.330837949741E+02   -0.17046E-06   -0.37268E-09    36   0.626E-04    0.412E-05
RMM:   2    -0.330837949744E+02   -0.32742E-09    0.00000E+00     3   0.376E-04    0.238E-05
RMM:   3    -0.330837949753E+02   -0.81582E-09    0.00000E+00     0   0.384E-04    0.122E-05
RMM:   4    -0.330837949754E+02   -0.12164E-09    0.00000E+00     0   0.386E-04    0.161E-06
RMM:   5    -0.330837949754E+02   -0.52978E-10    0.00000E+00     0   0.386E-04
  29 F= -.33403826E+02 E0= -.33403826E+02  d E =-.827876E+00  mag=     1.0000
 curvature:  -0.00 expect dE=-0.704E-05 dE for cont linesearch -0.824E-07
 ZBRENT:  can not reach accuracy
 opt :   0.0000  next Energy=     0.000000 (dE= 0.326E+02)
 bond charge predicted
       N       E                     dE             d eps       ncg     rms          rms(c)
DAV:   1    -0.330893891101E+02   -0.55941E-02   -0.96405E+00    78   0.327E+01    0.201E+00
RMM:   2    -0.330487534596E+02    0.40636E-01   -0.28168E-01    72   0.496E+00    0.767E-01
RMM:   3    -0.330764526958E+02   -0.27699E-01   -0.69860E-02    72   0.216E+00    0.351E-01
RMM:   4    -0.330435348023E+02    0.32918E-01   -0.41431E-02    72   0.127E+00    0.147E-01
RMM:   5    -0.330856532511E+02   -0.42118E-01   -0.45215E-02    72   0.933E-01    0.106E-01
RMM:   6    -0.330868316210E+02   -0.11784E-02   -0.20347E-03    72   0.305E-01    0.590E-02
RMM:   7    -0.330874519229E+02   -0.62030E-03   -0.55530E-04    72   0.155E-01    0.363E-02
RMM:   8    -0.330877124214E+02   -0.26050E-03   -0.25769E-04    72   0.941E-02    0.158E-02
RMM:   9    -0.330877602213E+02   -0.47800E-04   -0.73454E-05    71   0.611E-02    0.553E-03
RMM:  10    -0.330877577809E+02    0.24404E-05   -0.36180E-06    57   0.180E-02    0.371E-03
RMM:  11    -0.330877587308E+02   -0.94995E-06   -0.16331E-06    54   0.112E-02
  30 F= -.33401030E+02 E0= -.33401030E+02  d E =-.825080E+00  mag=     1.0000
 curvature:   0.00 expect dE= 0.894-321 dE for cont linesearch  0.395-322
 ZBRENT: fatal error in bracketing
     please rerun with smaller EDIFF, or copy CONTCAR
     to POSCAR and continue
