 running on   24 total cores
 distrk:  each k-point on   24 cores,    1 groups
 distr:  one band on    4 cores,    6 groups
 using from now: INCAR     
 vasp.5.4.4.18Apr17-6-g9f103f2a35 (build May 21 2019 18:55:53) complex          
  
 POSCAR found type information on POSCAR  Li C  O 
 POSCAR found :  3 types and       6 ions
 WARNING: type information on POSCAR and POTCAR are incompatible
 POTCAR overwrites the type information in POSCAR
 typ   1 type information:  Li O 
 WARNING: type information on POSCAR and POTCAR are incompatible
 POTCAR overwrites the type information in POSCAR
 typ   3 type information:  O  H 

 ----------------------------------------------------------------------------- 
|                                                                             |
|  ADVICE TO THIS USER RUNNING 'VASP/VAMP'   (HEAR YOUR MASTER'S VOICE ...):  |
|                                                                             |
|      You have a (more or less) 'small supercell' and for smaller cells      |
|      it is recommended  to use the reciprocal-space projection scheme!      |
|      The real space optimization is not  efficient for small cells and it   |
|      is also less accurate ...                                              |
|      Therefore set LREAL=.FALSE. in the  INCAR file                         |
|                                                                             |
 ----------------------------------------------------------------------------- 

 LDA part: xc-table for Pade appr. of Perdew
 POSCAR found type information on POSCAR  Li C  O 
 POSCAR found :  3 types and       6 ions
 POSCAR, INCAR and KPOINTS ok, starting setup
 FFT: planning ...
 WAVECAR not read
 WARNING: random wavefunctions but no delay for mixing, default for NELMDL
 entering main loop
       N       E                     dE             d eps       ncg     rms          rms(c)
DAV:   1     0.117816356407E+03    0.11782E+03   -0.51754E+03    96   0.603E+02
DAV:   2     0.171657924684E+02   -0.10065E+03   -0.93482E+02   108   0.150E+02
DAV:   3    -0.187838468462E+02   -0.35950E+02   -0.34328E+02   120   0.870E+01
DAV:   4    -0.212112996289E+02   -0.24275E+01   -0.24073E+01    90   0.201E+01
DAV:   5    -0.213057854780E+02   -0.94486E-01   -0.88452E-01   114   0.576E+00    0.107E+01
RMM:   6    -0.214767659889E+02   -0.17098E+00   -0.45428E+00    80   0.130E+01    0.117E+01
RMM:   7    -0.200928645802E+02    0.13839E+01   -0.13927E+00    72   0.806E+00    0.479E+00
RMM:   8    -0.200002537862E+02    0.92611E-01   -0.11598E-01    73   0.330E+00    0.399E+00
RMM:   9    -0.199962974759E+02    0.39563E-02   -0.11666E-01    77   0.209E+00    0.322E+00
RMM:  10    -0.199546764747E+02    0.41621E-01   -0.14813E-01    73   0.323E+00    0.291E+00
RMM:  11    -0.199974734750E+02   -0.42797E-01   -0.10960E-01    74   0.273E+00    0.290E+00
RMM:  12    -0.200679612625E+02   -0.70488E-01   -0.65880E-02    72   0.214E+00    0.146E+00
RMM:  13    -0.202317579046E+02   -0.16380E+00   -0.41172E-02    75   0.155E+00    0.112E+00
RMM:  14    -0.203411124036E+02   -0.10935E+00   -0.26960E-02    75   0.109E+00    0.636E-01
RMM:  15    -0.203861829013E+02   -0.45070E-01   -0.12210E-02    76   0.817E-01    0.389E-01
RMM:  16    -0.204185171871E+02   -0.32334E-01   -0.11058E-02    73   0.746E-01    0.360E-01
RMM:  17    -0.204231546305E+02   -0.46374E-02   -0.15732E-03    76   0.358E-01    0.332E-01
RMM:  18    -0.204233271602E+02   -0.17253E-03   -0.23556E-04    80   0.853E-02    0.332E-01
RMM:  19    -0.204228840113E+02    0.44315E-03   -0.21134E-03    73   0.329E-01    0.262E-01
RMM:  20    -0.204247338858E+02   -0.18499E-02   -0.40085E-03    81   0.422E-01    0.233E-01
RMM:  21    -0.204287510271E+02   -0.40171E-02   -0.51260E-04    75   0.155E-01    0.210E-01
RMM:  22    -0.204336949723E+02   -0.49439E-02   -0.15346E-03    73   0.258E-01    0.129E-01
RMM:  23    -0.204355818537E+02   -0.18869E-02   -0.14043E-03    80   0.266E-01    0.768E-02
RMM:  24    -0.204368666677E+02   -0.12848E-02   -0.27030E-04    74   0.126E-01    0.510E-02
RMM:  25    -0.204375437527E+02   -0.67709E-03   -0.22203E-04    73   0.116E-01    0.284E-02
RMM:  26    -0.204383514949E+02   -0.80774E-03   -0.13253E-04    76   0.761E-02    0.319E-02
RMM:  27    -0.204386373674E+02   -0.28587E-03   -0.56637E-05    72   0.550E-02    0.196E-02
RMM:  28    -0.204387971866E+02   -0.15982E-03   -0.25153E-05    74   0.379E-02    0.103E-02
RMM:  29    -0.204389332322E+02   -0.13605E-03   -0.21441E-05    74   0.289E-02    0.108E-02
RMM:  30    -0.204390633456E+02   -0.13011E-03   -0.11739E-05    71   0.219E-02    0.803E-03
RMM:  31    -0.204391712983E+02   -0.10795E-03   -0.12921E-05    69   0.174E-02    0.513E-03
RMM:  32    -0.204392124350E+02   -0.41137E-04   -0.69696E-06    66   0.140E-02    0.250E-03
RMM:  33    -0.204392299559E+02   -0.17521E-04   -0.13646E-06    55   0.802E-03    0.163E-03
RMM:  34    -0.204392463814E+02   -0.16425E-04   -0.15083E-06    55   0.702E-03    0.106E-03
RMM:  35    -0.204392572772E+02   -0.10896E-04   -0.12345E-06    54   0.765E-03    0.125E-03
RMM:  36    -0.204392630060E+02   -0.57288E-05   -0.79517E-07    53   0.700E-03    0.122E-03
RMM:  37    -0.204392651890E+02   -0.21830E-05   -0.42809E-07    47   0.547E-03    0.108E-03
RMM:  38    -0.204392660254E+02   -0.83634E-06   -0.30638E-07    49   0.473E-03
   1 F= -.20463132E+02 E0= -.20463132E+02  d E =-.204631E+02  mag=    -1.0000
 curvature:   0.00 expect dE= 0.000E+00 dE for cont linesearch  0.000E+00
 trial: gam= 0.00000 g(F)=  0.165E+01 g(S)=  0.179E+01 ort = 0.000E+00 (trialstep = 0.100E+01)
 search vector abs. value=  0.344E+01
 bond charge predicted
       N       E                     dE             d eps       ncg     rms          rms(c)
DAV:   1    -0.249197782788E+02   -0.44805E+01   -0.26286E+02    96   0.189E+02    0.192E+01
RMM:   2    -0.228879631360E+02    0.20318E+01   -0.14947E+01    72   0.335E+01    0.707E+00
RMM:   3    -0.222604073977E+02    0.62756E+00   -0.17676E+00    74   0.869E+00    0.403E+00
RMM:   4    -0.222919218793E+02   -0.31514E-01   -0.42979E-01    72   0.697E+00    0.256E+00
RMM:   5    -0.223009919023E+02   -0.90700E-02   -0.13763E-01    77   0.274E+00    0.206E+00
RMM:   6    -0.222820935497E+02    0.18898E-01   -0.22474E-02    73   0.127E+00    0.597E-01
RMM:   7    -0.222833981290E+02   -0.13046E-02   -0.11633E-02    75   0.878E-01    0.216E-01
RMM:   8    -0.222858152979E+02   -0.24172E-02   -0.26768E-03    77   0.364E-01    0.842E-02
RMM:   9    -0.222869028553E+02   -0.10876E-02   -0.44017E-04    72   0.186E-01    0.489E-02
RMM:  10    -0.222880990069E+02   -0.11962E-02   -0.35275E-04    73   0.112E-01    0.327E-02
RMM:  11    -0.222888419814E+02   -0.74297E-03   -0.14364E-04    73   0.689E-02    0.161E-02
RMM:  12    -0.222894801260E+02   -0.63814E-03   -0.12173E-04    74   0.562E-02    0.141E-02
RMM:  13    -0.222898143118E+02   -0.33419E-03   -0.76030E-05    76   0.399E-02    0.632E-03
RMM:  14    -0.222899664944E+02   -0.15218E-03   -0.33140E-05    72   0.270E-02    0.445E-03
RMM:  15    -0.222900214702E+02   -0.54976E-04   -0.11210E-05    71   0.169E-02    0.190E-03
RMM:  16    -0.222900383894E+02   -0.16919E-04   -0.20416E-06    58   0.769E-03    0.136E-03
RMM:  17    -0.222900473825E+02   -0.89931E-05   -0.10420E-06    54   0.684E-03    0.716E-04
RMM:  18    -0.222900505685E+02   -0.31860E-05   -0.52530E-07    50   0.524E-03    0.523E-04
RMM:  19    -0.222900526867E+02   -0.21182E-05   -0.43235E-07    48   0.486E-03    0.398E-04
RMM:  20    -0.222900548700E+02   -0.21833E-05   -0.33603E-07    45   0.456E-03    0.278E-04
RMM:  21    -0.222900556710E+02   -0.80101E-06   -0.17300E-07    43   0.378E-03
   2 F= -.22309859E+02 E0= -.22309859E+02  d E =-.184673E+01  mag=    -1.0000
 trial-energy change:   -1.846727  1 .order   -1.290819   -3.438835    0.857197
 step:   0.8815(harm=  0.8005)  dis= 0.13747  next Energy=   -22.359705 (dE=-0.190E+01)
 bond charge predicted
       N       E                     dE             d eps       ncg     rms          rms(c)
DAV:   1    -0.223800512926E+02   -0.89996E-01   -0.39015E+00    96   0.214E+01    0.259E+00
RMM:   2    -0.223580192441E+02    0.22032E-01   -0.21361E-01    72   0.440E+00    0.135E+00
RMM:   3    -0.223327353779E+02    0.25284E-01   -0.34911E-02    74   0.127E+00    0.712E-01
RMM:   4    -0.223310398570E+02    0.16955E-02   -0.10863E-02    76   0.976E-01    0.507E-01
RMM:   5    -0.223297810594E+02    0.12588E-02   -0.28622E-03    80   0.392E-01    0.246E-01
RMM:   6    -0.223297434515E+02    0.37608E-04   -0.28470E-04    73   0.158E-01    0.871E-02
RMM:   7    -0.223298885494E+02   -0.14510E-03   -0.23965E-04    75   0.115E-01    0.362E-02
RMM:   8    -0.223299791716E+02   -0.90622E-04   -0.49336E-05    79   0.575E-02    0.109E-02
RMM:   9    -0.223300589444E+02   -0.79773E-04   -0.85124E-06    73   0.232E-02    0.669E-03
RMM:  10    -0.223301496432E+02   -0.90699E-04   -0.79716E-06    64   0.136E-02    0.411E-03
RMM:  11    -0.223301937762E+02   -0.44133E-04   -0.39329E-06    62   0.112E-02    0.221E-03
RMM:  12    -0.223302257340E+02   -0.31958E-04   -0.21048E-06    58   0.829E-03    0.160E-03
RMM:  13    -0.223302555400E+02   -0.29806E-04   -0.34813E-06    62   0.782E-03    0.960E-04
RMM:  14    -0.223302615875E+02   -0.60475E-05   -0.62810E-07    50   0.687E-03    0.423E-04
RMM:  15    -0.223302647429E+02   -0.31554E-05   -0.43103E-07    48   0.481E-03    0.323E-04
RMM:  16    -0.223302669412E+02   -0.21983E-05   -0.28166E-07    44   0.445E-03    0.238E-04
RMM:  17    -0.223302684964E+02   -0.15552E-05   -0.22201E-07    43   0.355E-03    0.166E-04
RMM:  18    -0.223302689421E+02   -0.44571E-06   -0.11381E-07    38   0.322E-03
   3 F= -.22350375E+02 E0= -.22350375E+02  d E =-.188724E+01  mag=    -1.0000
 curvature:  -0.33 expect dE=-0.584E+00 dE for cont linesearch -0.408E-03
 trial: gam= 0.48925 g(F)=  0.144E+01 g(S)=  0.307E+00 ort = 0.648E-01 (trialstep = 0.976E+00)
 search vector abs. value=  0.263E+01
 bond charge predicted
       N       E                     dE             d eps       ncg     rms          rms(c)
DAV:   1    -0.228516092248E+02   -0.52134E+00   -0.46734E+02    90   0.257E+02    0.255E+01
RMM:   2    -0.238834513727E+02   -0.10318E+01   -0.16246E+01    73   0.333E+01    0.790E+00
RMM:   3    -0.238802289745E+02    0.32224E-02   -0.11280E+00    72   0.140E+01    0.368E+00
RMM:   4    -0.239420009146E+02   -0.61772E-01   -0.29073E-01    80   0.459E+00    0.158E+00
RMM:   5    -0.239551112440E+02   -0.13110E-01   -0.36987E-02    73   0.190E+00    0.556E-01
RMM:   6    -0.239584929082E+02   -0.33817E-02   -0.53216E-03    75   0.912E-01    0.309E-01
RMM:   7    -0.239602285586E+02   -0.17357E-02   -0.21872E-03    77   0.365E-01    0.151E-01
RMM:   8    -0.239608442146E+02   -0.61566E-03   -0.55384E-04    77   0.205E-01    0.768E-02
RMM:   9    -0.239614197727E+02   -0.57556E-03   -0.14938E-04    75   0.958E-02    0.320E-02
RMM:  10    -0.239619079677E+02   -0.48819E-03   -0.97236E-05    77   0.583E-02    0.148E-02
RMM:  11    -0.239623048868E+02   -0.39692E-03   -0.46654E-05    71   0.375E-02    0.878E-03
RMM:  12    -0.239626412763E+02   -0.33639E-03   -0.54116E-05    72   0.326E-02    0.541E-03
RMM:  13    -0.239628250408E+02   -0.18376E-03   -0.30888E-05    72   0.269E-02    0.334E-03
RMM:  14    -0.239629125136E+02   -0.87473E-04   -0.16926E-05    70   0.178E-02    0.201E-03
RMM:  15    -0.239629352334E+02   -0.22720E-04   -0.46868E-06    65   0.150E-02    0.140E-03
RMM:  16    -0.239629401949E+02   -0.49616E-05   -0.87683E-07    53   0.688E-03    0.709E-04
RMM:  17    -0.239629449440E+02   -0.47491E-05   -0.54217E-07    53   0.571E-03    0.559E-04
RMM:  18    -0.239629471476E+02   -0.22036E-05   -0.36595E-07    53   0.636E-03    0.449E-04
RMM:  19    -0.239629485034E+02   -0.13558E-05   -0.31669E-07    48   0.500E-03    0.400E-04
RMM:  20    -0.239629498975E+02   -0.13941E-05   -0.22706E-07    46   0.445E-03    0.299E-04
RMM:  21    -0.239629503633E+02   -0.46583E-06   -0.14545E-07    43   0.355E-03
   4 F= -.23980653E+02 E0= -.23980653E+02  d E =-.163028E+01  mag=    -1.0000
 trial-energy change:   -1.630278  1 .order   -1.461739   -1.736824   -1.186655
 step:   3.0821(harm=  3.0821)  dis= 0.44857  next Energy=   -25.091859 (dE=-0.274E+01)
 bond charge predicted
       N       E                     dE             d eps       ncg     rms          rms(c)
DAV:   1     0.947458570647E+01    0.33438E+02   -0.25419E+03    72   0.837E+02    0.139E+02
RMM:   2     0.245701412278E+01   -0.70176E+01   -0.10734E+02    72   0.142E+02    0.587E+01
RMM:   3     0.272814672704E+01    0.27113E+00   -0.12379E+01    81   0.561E+01    0.421E+01
RMM:   4     0.325461392331E+01    0.52647E+00   -0.57738E+00    78   0.266E+01    0.215E+01
RMM:   5     0.310721609997E+01   -0.14740E+00   -0.56846E-01    81   0.129E+01    0.524E+00
RMM:   6     0.313730963171E+01    0.30094E-01   -0.30914E-01    82   0.545E+00    0.504E+00
RMM:   7     0.313473084576E+01   -0.25788E-02   -0.48495E-02    77   0.402E+00    0.257E+00
RMM:   8     0.312991879717E+01   -0.48120E-02   -0.21596E-02    85   0.139E+00    0.116E+00
RMM:   9     0.312492394899E+01   -0.49948E-02   -0.43966E-03    78   0.761E-01    0.472E-01
RMM:  10     0.312048034032E+01   -0.44436E-02   -0.24469E-03    85   0.402E-01    0.204E-01
RMM:  11     0.311703326513E+01   -0.34471E-02   -0.13006E-03    84   0.255E-01    0.210E-01
RMM:  12     0.311502008902E+01   -0.20132E-02   -0.61996E-04    82   0.138E-01    0.112E-01
RMM:  13     0.311283176829E+01   -0.21883E-02   -0.78901E-04    79   0.119E-01    0.105E-01
RMM:  14     0.311219539306E+01   -0.63638E-03   -0.22657E-04    78   0.130E-01    0.440E-02
RMM:  15     0.311171591515E+01   -0.47948E-03   -0.14682E-04    77   0.455E-02    0.360E-02
RMM:  16     0.311104228276E+01   -0.67363E-03   -0.20609E-04    79   0.687E-02    0.398E-02
RMM:  17     0.311093984733E+01   -0.10244E-03   -0.79674E-05    70   0.406E-02    0.170E-02
RMM:  18     0.311088305118E+01   -0.56796E-04   -0.17420E-05    63   0.301E-02    0.114E-02
RMM:  19     0.311080929489E+01   -0.73756E-04   -0.12406E-05    60   0.210E-02    0.105E-02
RMM:  20     0.311070389826E+01   -0.10540E-03   -0.31466E-05    64   0.214E-02    0.161E-02
RMM:  21     0.311069452068E+01   -0.93776E-05   -0.40862E-06    58   0.239E-02    0.635E-03
RMM:  22     0.311068066697E+01   -0.13854E-04   -0.32910E-06    57   0.829E-03    0.463E-03
RMM:  23     0.311066646909E+01   -0.14198E-04   -0.14791E-06    56   0.132E-02    0.616E-03
RMM:  24     0.311065776923E+01   -0.86999E-05   -0.15095E-06    56   0.861E-03    0.558E-03
RMM:  25     0.311065638831E+01   -0.13809E-05   -0.56953E-07    54   0.112E-02    0.437E-03
RMM:  26     0.311065318626E+01   -0.32020E-05   -0.44518E-07    49   0.596E-03    0.413E-03
RMM:  27     0.311065176673E+01   -0.14195E-05   -0.31754E-07    49   0.893E-03    0.282E-03
RMM:  28     0.311065000902E+01   -0.17577E-05   -0.37938E-07    51   0.490E-03    0.296E-03
RMM:  29     0.311064964534E+01   -0.36368E-06   -0.24761E-07    47   0.788E-03
   5 F= 0.30996740E+01 E0= 0.30996740E+01  d E =0.254500E+02  mag=    -1.0000
 curvature:  -2.28 expect dE=-0.271E+04 dE for cont linesearch -0.211E+04
 ZBRENT: interpolating
 opt :   1.0269  next Energy=   -24.011387 (dE=-0.166E+01)
 bond charge predicted
       N       E                     dE             d eps       ncg     rms          rms(c)
DAV:   1    -0.191923665869E+02   -0.22303E+02   -0.17543E+03    96   0.401E+02    0.841E+01
RMM:   2    -0.277201530523E+02   -0.85278E+01   -0.21080E+02    77   0.103E+02    0.704E+01
RMM:   3    -0.234315783605E+02    0.42886E+01   -0.84014E+00    73   0.378E+01    0.415E+01
RMM:   4    -0.241385447765E+02   -0.70697E+00   -0.81994E+00    77   0.221E+01    0.120E+01
RMM:   5    -0.241113522923E+02    0.27192E-01   -0.34194E+00    77   0.152E+01    0.856E+00
RMM:   6    -0.234594952871E+02    0.65186E+00   -0.14243E+00    77   0.945E+00    0.268E+00
RMM:   7    -0.234093217659E+02    0.50174E-01   -0.11025E-01    77   0.316E+00    0.119E+00
RMM:   8    -0.234100581960E+02   -0.73643E-03   -0.59600E-02    78   0.169E+00    0.593E-01
RMM:   9    -0.234155781450E+02   -0.55199E-02   -0.93482E-03    73   0.112E+00    0.208E-01
RMM:  10    -0.234205879209E+02   -0.50098E-02   -0.39738E-03    76   0.407E-01    0.197E-01
RMM:  11    -0.234247922331E+02   -0.42043E-02   -0.21486E-03    76   0.379E-01    0.803E-02
RMM:  12    -0.234277948934E+02   -0.30027E-02   -0.84123E-04    77   0.153E-01    0.674E-02
RMM:  13    -0.234297603412E+02   -0.19654E-02   -0.31711E-04    72   0.138E-01    0.459E-02
RMM:  14    -0.234320832161E+02   -0.23229E-02   -0.63237E-04    72   0.111E-01    0.235E-02
RMM:  15    -0.234326457398E+02   -0.56252E-03   -0.17849E-04    74   0.103E-01    0.124E-02
RMM:  16    -0.234332897198E+02   -0.64398E-03   -0.14154E-04    75   0.483E-02    0.975E-03
RMM:  17    -0.234335209577E+02   -0.23124E-03   -0.22866E-05    69   0.427E-02    0.530E-03
RMM:  18    -0.234337438998E+02   -0.22294E-03   -0.22562E-05    72   0.237E-02    0.624E-03
RMM:  19    -0.234339454665E+02   -0.20157E-03   -0.23194E-05    69   0.232E-02    0.439E-03
RMM:  20    -0.234340019749E+02   -0.56508E-04   -0.10607E-05    72   0.179E-02    0.160E-03
RMM:  21    -0.234340226607E+02   -0.20686E-04   -0.15615E-06    56   0.880E-03    0.150E-03
RMM:  22    -0.234340360578E+02   -0.13397E-04   -0.93784E-07    54   0.733E-03    0.874E-04
RMM:  23    -0.234340434098E+02   -0.73520E-05   -0.66611E-07    53   0.733E-03    0.588E-04
RMM:  24    -0.234340473866E+02   -0.39768E-05   -0.55623E-07    53   0.679E-03    0.614E-04
RMM:  25    -0.234340491189E+02   -0.17323E-05   -0.35094E-07    48   0.608E-03    0.319E-04
RMM:  26    -0.234340501078E+02   -0.98883E-06   -0.24297E-07    45   0.439E-03
   6 F= -.23453670E+02 E0= -.23453670E+02  d E =-.110329E+01  mag=    -1.0000
 curvature:  -0.00 expect dE=-0.130E-03 dE for cont linesearch -0.328E-04
 ZBRENT: bisectioning
 opt :   2.0545  next Energy=   -29.279195 (dE=-0.693E+01)
 bond charge predicted
       N       E                     dE             d eps       ncg     rms          rms(c)
DAV:   1    -0.230894599838E+02    0.34459E+00   -0.57049E+02   108   0.322E+02    0.430E+01
RMM:   2    -0.234639129066E+02   -0.37445E+00   -0.12852E+01    74   0.333E+01    0.113E+01
RMM:   3    -0.233658927275E+02    0.98020E-01   -0.11834E+00    76   0.180E+01    0.459E+00
RMM:   4    -0.233808759761E+02   -0.14983E-01   -0.24408E-01    80   0.549E+00    0.267E+00
RMM:   5    -0.233832353049E+02   -0.23593E-02   -0.40258E-02    79   0.271E+00    0.878E-01
RMM:   6    -0.233850492251E+02   -0.18139E-02   -0.75347E-03    79   0.101E+00    0.373E-01
RMM:   7    -0.233867728552E+02   -0.17236E-02   -0.18294E-03    79   0.463E-01    0.221E-01
RMM:   8    -0.233880400281E+02   -0.12672E-02   -0.68345E-04    79   0.229E-01    0.118E-01
RMM:   9    -0.233893584655E+02   -0.13184E-02   -0.35852E-04    75   0.163E-01    0.490E-02
RMM:  10    -0.233908595195E+02   -0.15011E-02   -0.29709E-04    74   0.114E-01    0.343E-02
RMM:  11    -0.233917233251E+02   -0.86381E-03   -0.19350E-04    78   0.872E-02    0.225E-02
RMM:  12    -0.233922770653E+02   -0.55374E-03   -0.12250E-04    73   0.562E-02    0.107E-02
RMM:  13    -0.233925193811E+02   -0.24232E-03   -0.70049E-05    75   0.497E-02    0.677E-03
RMM:  14    -0.233925823890E+02   -0.63008E-04   -0.19813E-05    68   0.243E-02    0.469E-03
RMM:  15    -0.233926154658E+02   -0.33077E-04   -0.59620E-06    64   0.224E-02    0.438E-03
RMM:  16    -0.233926407051E+02   -0.25239E-04   -0.34330E-06    59   0.108E-02    0.275E-03
RMM:  17    -0.233926556811E+02   -0.14976E-04   -0.25154E-06    59   0.126E-02    0.240E-03
RMM:  18    -0.233926647238E+02   -0.90427E-05   -0.10799E-06    55   0.767E-03    0.254E-03
RMM:  19    -0.233926714310E+02   -0.67072E-05   -0.64261E-07    52   0.910E-03    0.655E-04
RMM:  20    -0.233926768204E+02   -0.53894E-05   -0.73628E-07    52   0.671E-03    0.715E-04
RMM:  21    -0.233926787053E+02   -0.18849E-05   -0.28483E-07    50   0.821E-03    0.909E-04
RMM:  22    -0.233926804806E+02   -0.17753E-05   -0.22607E-07    49   0.441E-03    0.441E-04
RMM:  23    -0.233926816522E+02   -0.11717E-05   -0.15018E-07    48   0.550E-03    0.299E-04
RMM:  24    -0.233926822424E+02   -0.59016E-06   -0.11509E-07    46   0.338E-03
   7 F= -.23407370E+02 E0= -.23407370E+02  d E =-.105699E+01  mag=    -1.0000
 curvature:  -5.89 expect dE=-0.105E+03 dE for cont linesearch -0.242E+02
 ZBRENT: interpolating
 opt :   1.3651  next Energy=   -23.726725 (dE=-0.138E+01)
 bond charge predicted
       N       E                     dE             d eps       ncg     rms          rms(c)
DAV:   1    -0.233437137630E+02    0.48968E-01   -0.24951E+02    96   0.172E+02    0.157E+01
RMM:   2    -0.239578829798E+02   -0.61417E+00   -0.97620E+00    75   0.263E+01    0.105E+01
RMM:   3    -0.238199664237E+02    0.13792E+00   -0.86560E-01    72   0.118E+01    0.461E+00
RMM:   4    -0.238297477984E+02   -0.97814E-02   -0.23753E-01    80   0.377E+00    0.157E+00
RMM:   5    -0.238265111407E+02    0.32367E-02   -0.31099E-02    77   0.216E+00    0.783E-01
RMM:   6    -0.238264563006E+02    0.54840E-04   -0.14705E-02    80   0.874E-01    0.379E-01
RMM:   7    -0.238286216569E+02   -0.21654E-02   -0.50780E-03    79   0.641E-01    0.276E-01
RMM:   8    -0.238287422298E+02   -0.12057E-03   -0.11349E-03    77   0.321E-01    0.109E-01
RMM:   9    -0.238295888072E+02   -0.84658E-03   -0.30456E-04    77   0.147E-01    0.416E-02
RMM:  10    -0.238302111221E+02   -0.62231E-03   -0.18364E-04    81   0.989E-02    0.211E-02
RMM:  11    -0.238306229523E+02   -0.41183E-03   -0.35930E-05    77   0.425E-02    0.105E-02
RMM:  12    -0.238311945747E+02   -0.57162E-03   -0.70821E-05    75   0.452E-02    0.886E-03
RMM:  13    -0.238314060275E+02   -0.21145E-03   -0.34052E-05    75   0.317E-02    0.510E-03
RMM:  14    -0.238315277423E+02   -0.12171E-03   -0.17674E-05    73   0.191E-02    0.385E-03
RMM:  15    -0.238315724066E+02   -0.44664E-04   -0.47450E-06    63   0.156E-02    0.222E-03
RMM:  16    -0.238315880583E+02   -0.15652E-04   -0.96280E-07    53   0.105E-02    0.148E-03
RMM:  17    -0.238316102529E+02   -0.22195E-04   -0.12340E-06    55   0.947E-03    0.940E-04
RMM:  18    -0.238316335901E+02   -0.23337E-04   -0.20214E-06    59   0.973E-03    0.858E-04
RMM:  19    -0.238316393412E+02   -0.57511E-05   -0.77533E-07    53   0.810E-03    0.839E-04
RMM:  20    -0.238316431391E+02   -0.37979E-05   -0.54671E-07    51   0.741E-03    0.641E-04
RMM:  21    -0.238316451289E+02   -0.19898E-05   -0.35438E-07    51   0.656E-03    0.333E-04
RMM:  22    -0.238316466102E+02   -0.14813E-05   -0.24049E-07    45   0.490E-03    0.302E-04
RMM:  23    -0.238316474156E+02   -0.80546E-06   -0.14999E-07    44   0.425E-03
   8 F= -.23849539E+02 E0= -.23849539E+02  d E =-.149916E+01  mag=    -1.0000
 curvature:  -0.07 expect dE=-0.358E+00 dE for cont linesearch -0.322E-01
 ZBRENT: bisectioning
 opt :   1.7098  next Energy=   -24.154288 (dE=-0.180E+01)
 bond charge predicted
       N       E                     dE             d eps       ncg     rms          rms(c)
DAV:   1    -0.239217706421E+02   -0.90124E-01   -0.60634E+01    84   0.903E+01    0.124E+01
RMM:   2    -0.240248867838E+02   -0.10312E+00   -0.19183E+00    73   0.115E+01    0.406E+00
RMM:   3    -0.240072287165E+02    0.17658E-01   -0.19874E-01    75   0.720E+00    0.160E+00
RMM:   4    -0.240143158157E+02   -0.70871E-02   -0.33268E-02    83   0.177E+00    0.824E-01
RMM:   5    -0.240152741171E+02   -0.95830E-03   -0.50570E-03    75   0.842E-01    0.503E-01
RMM:   6    -0.240160786479E+02   -0.80453E-03   -0.13029E-03    76   0.357E-01    0.235E-01
RMM:   7    -0.240165233654E+02   -0.44472E-03   -0.18338E-04    80   0.154E-01    0.879E-02
RMM:   8    -0.240168726418E+02   -0.34928E-03   -0.11067E-04    81   0.741E-02    0.320E-02
RMM:   9    -0.240171474609E+02   -0.27482E-03   -0.61343E-05    77   0.658E-02    0.170E-02
RMM:  10    -0.240172863153E+02   -0.13885E-03   -0.20581E-05    79   0.311E-02    0.113E-02
RMM:  11    -0.240174514565E+02   -0.16514E-03   -0.15061E-05    69   0.206E-02    0.568E-03
RMM:  12    -0.240175907211E+02   -0.13926E-03   -0.18945E-05    73   0.222E-02    0.438E-03
RMM:  13    -0.240176264587E+02   -0.35738E-04   -0.45550E-06    63   0.137E-02    0.295E-03
RMM:  14    -0.240176653578E+02   -0.38899E-04   -0.70451E-06    67   0.127E-02    0.190E-03
RMM:  15    -0.240176755424E+02   -0.10185E-04   -0.16403E-06    56   0.144E-02    0.217E-03
RMM:  16    -0.240176779457E+02   -0.24034E-05   -0.65207E-07    53   0.804E-03    0.122E-03
RMM:  17    -0.240176801965E+02   -0.22508E-05   -0.35355E-07    50   0.806E-03    0.816E-04
RMM:  18    -0.240176863237E+02   -0.61272E-05   -0.78295E-07    51   0.547E-03    0.116E-03
RMM:  19    -0.240176884981E+02   -0.21744E-05   -0.47533E-07    49   0.685E-03    0.603E-04
RMM:  20    -0.240176890679E+02   -0.56979E-06   -0.21655E-07    47   0.446E-03
   9 F= -.24033488E+02 E0= -.24033488E+02  d E =-.168311E+01  mag=    -1.0000
 curvature:  -0.63 expect dE=-0.517E+01 dE for cont linesearch -0.810E-02
 trial: gam= 3.82952 g(F)=  0.644E+01 g(S)=  0.180E+01 ort =-0.184E+00 (trialstep = 0.651E-01)
 search vector abs. value=  0.454E+02
 bond charge predicted
       N       E                     dE             d eps       ncg     rms          rms(c)
DAV:   1    -0.243039556522E+02   -0.28627E+00   -0.30600E+01    96   0.631E+01    0.774E+00
RMM:   2    -0.243666210820E+02   -0.62665E-01   -0.10825E+00    74   0.846E+00    0.254E+00
RMM:   3    -0.243619981972E+02    0.46229E-02   -0.82819E-02    75   0.378E+00    0.106E+00
RMM:   4    -0.243651869128E+02   -0.31887E-02   -0.16860E-02    84   0.119E+00    0.833E-01
RMM:   5    -0.243653417755E+02   -0.15486E-03   -0.18114E-03    77   0.551E-01    0.504E-01
RMM:   6    -0.243655727364E+02   -0.23096E-03   -0.65123E-04    78   0.267E-01    0.155E-01
RMM:   7    -0.243657655839E+02   -0.19285E-03   -0.23297E-04    79   0.149E-01    0.870E-02
RMM:   8    -0.243659224651E+02   -0.15688E-03   -0.40781E-05    80   0.655E-02    0.235E-02
RMM:   9    -0.243661801087E+02   -0.25764E-03   -0.57899E-05    78   0.465E-02    0.310E-02
RMM:  10    -0.243662929796E+02   -0.11287E-03   -0.15089E-05    68   0.362E-02    0.142E-02
RMM:  11    -0.243663594008E+02   -0.66421E-04   -0.78378E-06    68   0.178E-02    0.710E-03
RMM:  12    -0.243664134636E+02   -0.54063E-04   -0.49110E-06    64   0.176E-02    0.681E-03
RMM:  13    -0.243664534428E+02   -0.39979E-04   -0.44789E-06    62   0.129E-02    0.420E-03
RMM:  14    -0.243664671374E+02   -0.13695E-04   -0.16012E-06    57   0.151E-02    0.170E-03
RMM:  15    -0.243664802887E+02   -0.13151E-04   -0.19260E-06    56   0.883E-03    0.144E-03
RMM:  16    -0.243664865771E+02   -0.62884E-05   -0.87792E-07    54   0.989E-03    0.112E-03
RMM:  17    -0.243664892277E+02   -0.26506E-05   -0.39171E-07    52   0.742E-03    0.101E-03
RMM:  18    -0.243664926981E+02   -0.34703E-05   -0.36198E-07    49   0.633E-03    0.865E-04
RMM:  19    -0.243664955940E+02   -0.28959E-05   -0.38759E-07    50   0.610E-03    0.520E-04
RMM:  20    -0.243664962948E+02   -0.70081E-06   -0.25464E-07    46   0.630E-03
  10 F= -.24381988E+02 E0= -.24381988E+02  d E =-.348500E+00  mag=    -1.0000
 trial-energy change:   -0.348500  1 .order   -0.335169   -0.490035   -0.180302
 step:   0.0928(harm=  0.1030)  dis= 0.05203  next Energy=   -24.421373 (dE=-0.388E+00)
 bond charge predicted
       N       E                     dE             d eps       ncg     rms          rms(c)
DAV:   1    -0.243967972547E+02   -0.30302E-01   -0.56245E+00   108   0.264E+01    0.334E+00
RMM:   2    -0.244021775344E+02   -0.53803E-02   -0.14750E-01    73   0.314E+00    0.112E+00
RMM:   3    -0.244008778262E+02    0.12997E-02   -0.13276E-02    76   0.147E+00    0.552E-01
RMM:   4    -0.244016651312E+02   -0.78731E-03   -0.26490E-03    85   0.482E-01    0.389E-01
RMM:   5    -0.244017415800E+02   -0.76449E-04   -0.43079E-04    75   0.211E-01    0.189E-01
RMM:   6    -0.244018035786E+02   -0.61999E-04   -0.13786E-04    77   0.132E-01    0.526E-02
RMM:   7    -0.244018456158E+02   -0.42037E-04   -0.35961E-05    77   0.616E-02    0.205E-02
RMM:   8    -0.244018919429E+02   -0.46327E-04   -0.62738E-06    66   0.264E-02    0.900E-03
RMM:   9    -0.244019660975E+02   -0.74155E-04   -0.11694E-05    72   0.264E-02    0.744E-03
RMM:  10    -0.244019922149E+02   -0.26117E-04   -0.22947E-06    58   0.171E-02    0.409E-03
RMM:  11    -0.244020178753E+02   -0.25660E-04   -0.20738E-06    58   0.110E-02    0.183E-03
RMM:  12    -0.244020405020E+02   -0.22627E-04   -0.25452E-06    58   0.118E-02    0.299E-03
RMM:  13    -0.244020464877E+02   -0.59857E-05   -0.85044E-07    54   0.125E-02    0.127E-03
RMM:  14    -0.244020504099E+02   -0.39222E-05   -0.75205E-07    54   0.745E-03    0.738E-04
RMM:  15    -0.244020566174E+02   -0.62075E-05   -0.61122E-07    53   0.828E-03    0.116E-03
RMM:  16    -0.244020599182E+02   -0.33008E-05   -0.56061E-07    52   0.834E-03    0.654E-04
RMM:  17    -0.244020610884E+02   -0.11702E-05   -0.37316E-07    48   0.747E-03    0.522E-04
RMM:  18    -0.244020624314E+02   -0.13430E-05   -0.28970E-07    47   0.562E-03    0.623E-04
RMM:  19    -0.244020633329E+02   -0.90145E-06   -0.19948E-07    45   0.537E-03
  11 F= -.24417514E+02 E0= -.24417514E+02  d E =-.384026E+00  mag=    -1.0000
 curvature:  -0.29 expect dE=-0.307E+01 dE for cont linesearch -0.116E-03
 trial: gam= 0.26207 g(F)=  0.803E+01 g(S)=  0.262E+01 ort =-0.135E+00 (trialstep = 0.706E-01)
 search vector abs. value=  0.137E+02
 bond charge predicted
       N       E                     dE             d eps       ncg     rms          rms(c)
DAV:   1    -0.251002531495E+02   -0.69819E+00   -0.20165E+00    84   0.146E+01    0.216E+00
RMM:   2    -0.250876890728E+02    0.12564E-01   -0.94274E-02    75   0.298E+00    0.117E+00
RMM:   3    -0.250867981946E+02    0.89088E-03   -0.90313E-03    77   0.117E+00    0.584E-01
RMM:   4    -0.250868537872E+02   -0.55593E-04   -0.15215E-03    77   0.388E-01    0.183E-01
RMM:   5    -0.250870969600E+02   -0.24317E-03   -0.22876E-04    78   0.200E-01    0.484E-02
RMM:   6    -0.250871973515E+02   -0.10039E-03   -0.68656E-05    85   0.629E-02    0.310E-02
RMM:   7    -0.250872699534E+02   -0.72602E-04   -0.90672E-06    74   0.393E-02    0.172E-02
RMM:   8    -0.250873900083E+02   -0.12005E-03   -0.14454E-05    77   0.282E-02    0.930E-03
RMM:   9    -0.250874404290E+02   -0.50421E-04   -0.30472E-06    61   0.173E-02    0.413E-03
RMM:  10    -0.250874744639E+02   -0.34035E-04   -0.27801E-06    60   0.139E-02    0.300E-03
RMM:  11    -0.250875135131E+02   -0.39049E-04   -0.28473E-06    62   0.130E-02    0.190E-03
RMM:  12    -0.250875413928E+02   -0.27880E-04   -0.24786E-06    61   0.115E-02    0.121E-03
RMM:  13    -0.250875517641E+02   -0.10371E-04   -0.11811E-06    55   0.120E-02    0.139E-03
RMM:  14    -0.250875553988E+02   -0.36348E-05   -0.62256E-07    52   0.768E-03    0.540E-04
RMM:  15    -0.250875595112E+02   -0.41124E-05   -0.45433E-07    51   0.757E-03    0.797E-04
RMM:  16    -0.250875607764E+02   -0.12652E-05   -0.29093E-07    50   0.704E-03    0.361E-04
RMM:  17    -0.250875616606E+02   -0.88425E-06   -0.21667E-07    46   0.497E-03
  12 F= -.25103658E+02 E0= -.25103658E+02  d E =-.686144E+00  mag=    -1.0000
 ZBRENT: can't locate minimum, use default step
 trial-energy change:   -0.686144  1 .order   -0.685706   -0.749270   -0.622141
 step:   0.2825(harm=  0.4162)  dis= 0.11552  next Energy=   -26.625536 (dE=-0.221E+01)
 bond charge predicted
       N       E                     dE             d eps       ncg     rms          rms(c)
DAV:   1    -0.265708621563E+02   -0.14833E+01   -0.16251E+01    72   0.417E+01    0.587E+00
RMM:   2    -0.264808343895E+02    0.90028E-01   -0.75323E-01    75   0.815E+00    0.317E+00
RMM:   3    -0.264722030638E+02    0.86313E-02   -0.76065E-02    79   0.312E+00    0.159E+00
RMM:   4    -0.264720467042E+02    0.15636E-03   -0.13309E-02    74   0.110E+00    0.465E-01
RMM:   5    -0.264735085701E+02   -0.14619E-02   -0.19959E-03    75   0.577E-01    0.150E-01
RMM:   6    -0.264740743045E+02   -0.56573E-03   -0.65410E-04    83   0.213E-01    0.936E-02
RMM:   7    -0.264745664202E+02   -0.49212E-03   -0.15195E-04    73   0.162E-01    0.544E-02
RMM:   8    -0.264750780624E+02   -0.51164E-03   -0.95605E-05    83   0.699E-02    0.275E-02
RMM:   9    -0.264753891405E+02   -0.31108E-03   -0.41201E-05    79   0.604E-02    0.827E-03
RMM:  10    -0.264755678314E+02   -0.17869E-03   -0.16217E-05    76   0.252E-02    0.587E-03
RMM:  11    -0.264758087403E+02   -0.24091E-03   -0.16340E-05    71   0.227E-02    0.397E-03
RMM:  12    -0.264759921337E+02   -0.18339E-03   -0.21935E-05    74   0.239E-02    0.249E-03
RMM:  13    -0.264760143482E+02   -0.22215E-04   -0.24657E-06    61   0.168E-02    0.226E-03
RMM:  14    -0.264760256071E+02   -0.11259E-04   -0.85383E-07    54   0.799E-03    0.123E-03
RMM:  15    -0.264760514699E+02   -0.25863E-04   -0.22353E-06    59   0.916E-03    0.666E-04
RMM:  16    -0.264760569314E+02   -0.54615E-05   -0.80734E-07    54   0.958E-03    0.115E-03
RMM:  17    -0.264760577947E+02   -0.86335E-06   -0.37549E-07    52   0.693E-03
  13 F= -.26494217E+02 E0= -.26494217E+02  d E =-.207670E+01  mag=    -1.0000
 curvature:  -0.23 expect dE=-0.509E+00 dE for cont linesearch -0.322E+00
 ZBRENT: increasing intervall
 opt :   0.7062  next Energy=   -26.483494 (dE=-0.207E+01)
 bond charge predicted
       N       E                     dE             d eps       ncg     rms          rms(c)
DAV:   1    -0.271325287068E+02   -0.65647E+00   -0.53564E+01    84   0.755E+01    0.918E+00
RMM:   2    -0.268423098023E+02    0.29022E+00   -0.22697E+00    78   0.140E+01    0.478E+00
RMM:   3    -0.268063169320E+02    0.35993E-01   -0.22310E-01    79   0.447E+00    0.241E+00
RMM:   4    -0.268000234002E+02    0.62935E-02   -0.55741E-02    76   0.207E+00    0.748E-01
RMM:   5    -0.268044600273E+02   -0.44366E-02   -0.83000E-03    77   0.120E+00    0.368E-01
RMM:   6    -0.268061665469E+02   -0.17065E-02   -0.23273E-03    81   0.382E-01    0.179E-01
RMM:   7    -0.268078725129E+02   -0.17060E-02   -0.78266E-04    74   0.292E-01    0.705E-02
RMM:   8    -0.268089364072E+02   -0.10639E-02   -0.20384E-04    78   0.110E-01    0.278E-02
RMM:   9    -0.268097189378E+02   -0.78253E-03   -0.16041E-04    78   0.869E-02    0.159E-02
RMM:  10    -0.268102530754E+02   -0.53414E-03   -0.54077E-05    81   0.504E-02    0.101E-02
RMM:  11    -0.268110624989E+02   -0.80942E-03   -0.10797E-04    75   0.475E-02    0.110E-02
RMM:  12    -0.268112892719E+02   -0.22677E-03   -0.35817E-05    74   0.430E-02    0.506E-03
RMM:  13    -0.268114029554E+02   -0.11368E-03   -0.18593E-05    73   0.227E-02    0.423E-03
RMM:  14    -0.268114405348E+02   -0.37579E-04   -0.31342E-06    61   0.201E-02    0.244E-03
RMM:  15    -0.268114701360E+02   -0.29601E-04   -0.25615E-06    59   0.107E-02    0.129E-03
RMM:  16    -0.268114844074E+02   -0.14271E-04   -0.14333E-06    56   0.108E-02    0.115E-03
RMM:  17    -0.268114934437E+02   -0.90364E-05   -0.16833E-06    56   0.923E-03    0.877E-04
RMM:  18    -0.268114968405E+02   -0.33968E-05   -0.65092E-07    54   0.824E-03    0.549E-04
RMM:  19    -0.268114994601E+02   -0.26196E-05   -0.38253E-07    53   0.675E-03    0.443E-04
RMM:  20    -0.268115016054E+02   -0.21453E-05   -0.30579E-07    49   0.599E-03    0.467E-04
RMM:  21    -0.268115033034E+02   -0.16980E-05   -0.22551E-07    48   0.530E-03    0.255E-04
RMM:  22    -0.268115045190E+02   -0.12156E-05   -0.17197E-07    44   0.453E-03    0.199E-04
RMM:  23    -0.268115051169E+02   -0.59793E-06   -0.10893E-07    44   0.392E-03
  14 F= -.26832035E+02 E0= -.26832035E+02  d E =-.241452E+01  mag=    -1.0000
 curvature:   0.01 expect dE= 0.221E-01 dE for cont linesearch  0.363E-02
 ZBRENT: bracketing found
 ZBRENT: interpolating
 opt :   0.5503  next Energy=   -27.031193 (dE=-0.261E+01)
 bond charge predicted
       N       E                     dE             d eps       ncg     rms          rms(c)
DAV:   1    -0.270577035462E+02   -0.24620E+00   -0.73070E+00    72   0.274E+01    0.331E+00
RMM:   2    -0.270228266611E+02    0.34877E-01   -0.24373E-01    73   0.483E+00    0.139E+00
RMM:   3    -0.270247885351E+02   -0.19619E-02   -0.32208E-02    76   0.194E+00    0.693E-01
RMM:   4    -0.270260529756E+02   -0.12644E-02   -0.75168E-03    78   0.682E-01    0.233E-01
RMM:   5    -0.270267001319E+02   -0.64716E-03   -0.11094E-03    76   0.437E-01    0.113E-01
RMM:   6    -0.270273779104E+02   -0.67778E-03   -0.32966E-04    76   0.152E-01    0.611E-02
RMM:   7    -0.270279249253E+02   -0.54701E-03   -0.10809E-04    73   0.108E-01    0.272E-02
RMM:   8    -0.270282178478E+02   -0.29292E-03   -0.57718E-05    75   0.447E-02    0.124E-02
RMM:   9    -0.270284496338E+02   -0.23179E-03   -0.37787E-05    78   0.459E-02    0.645E-03
RMM:  10    -0.270285458008E+02   -0.96167E-04   -0.83748E-06    66   0.198E-02    0.454E-03
RMM:  11    -0.270286994738E+02   -0.15367E-03   -0.17867E-05    72   0.219E-02    0.316E-03
RMM:  12    -0.270287625382E+02   -0.63064E-04   -0.90428E-06    66   0.219E-02    0.247E-03
RMM:  13    -0.270287759667E+02   -0.13428E-04   -0.15951E-06    56   0.113E-02    0.170E-03
RMM:  14    -0.270287948946E+02   -0.18928E-04   -0.16217E-06    56   0.967E-03    0.110E-03
RMM:  15    -0.270288080743E+02   -0.13180E-04   -0.12987E-06    55   0.110E-02    0.883E-04
RMM:  16    -0.270288119111E+02   -0.38368E-05   -0.63203E-07    51   0.952E-03    0.542E-04
RMM:  17    -0.270288141705E+02   -0.22594E-05   -0.40090E-07    49   0.772E-03    0.575E-04
RMM:  18    -0.270288174303E+02   -0.32598E-05   -0.43565E-07    52   0.636E-03    0.354E-04
RMM:  19    -0.270288187069E+02   -0.12766E-05   -0.34846E-07    48   0.687E-03    0.410E-04
RMM:  20    -0.270288189126E+02   -0.20569E-06   -0.21385E-07    46   0.538E-03
  15 F= -.27048287E+02 E0= -.27048287E+02  d E =-.263077E+01  mag=    -1.0000
 curvature:  -0.42 expect dE=-0.686E+00 dE for cont linesearch -0.343E-02
 ZBRENT: interpolating
 opt :   0.5284  next Energy=   -27.052217 (dE=-0.263E+01)
 bond charge predicted
       N       E                     dE             d eps       ncg     rms          rms(c)
DAV:   1    -0.270322149805E+02   -0.33963E-02   -0.14854E-01    96   0.395E+00    0.484E-01
RMM:   2    -0.270313776426E+02    0.83734E-03   -0.51315E-03    73   0.700E-01    0.216E-01
RMM:   3    -0.270313245821E+02    0.53061E-04   -0.70538E-04    76   0.295E-01    0.111E-01
RMM:   4    -0.270314026121E+02   -0.78030E-04   -0.18060E-04    78   0.106E-01    0.361E-02
RMM:   5    -0.270314354157E+02   -0.32804E-04   -0.23687E-05    77   0.641E-02    0.175E-02
RMM:   6    -0.270314517053E+02   -0.16290E-04   -0.61987E-06    70   0.204E-02    0.944E-03
RMM:   7    -0.270314803920E+02   -0.28687E-04   -0.34149E-06    61   0.245E-02    0.432E-03
RMM:   8    -0.270314943954E+02   -0.14003E-04   -0.13147E-06    56   0.109E-02    0.167E-03
RMM:   9    -0.270315052298E+02   -0.10834E-04   -0.86370E-07    53   0.855E-03    0.111E-03
RMM:  10    -0.270315143447E+02   -0.91149E-05   -0.82952E-07    54   0.950E-03    0.906E-04
RMM:  11    -0.270315200479E+02   -0.57031E-05   -0.55292E-07    53   0.888E-03    0.782E-04
RMM:  12    -0.270315249494E+02   -0.49016E-05   -0.56010E-07    52   0.731E-03    0.589E-04
RMM:  13    -0.270315283099E+02   -0.33604E-05   -0.48199E-07    53   0.808E-03    0.422E-04
RMM:  14    -0.270315302555E+02   -0.19457E-05   -0.41367E-07    49   0.670E-03    0.499E-04
RMM:  15    -0.270315310671E+02   -0.81154E-06   -0.26988E-07    49   0.650E-03
  16 F= -.27050927E+02 E0= -.27050927E+02  d E =-.263341E+01  mag=    -1.0000
 curvature:  -0.48 expect dE=-0.734E+00 dE for cont linesearch -0.120E-05
 trial: gam= 0.18057 g(F)=  0.138E+01 g(S)=  0.158E+00 ort = 0.587E-02 (trialstep = 0.162E+00)
 search vector abs. value=  0.198E+01
 bond charge predicted
       N       E                     dE             d eps       ncg     rms          rms(c)
DAV:   1    -0.272336773095E+02   -0.20215E+00   -0.89823E+00    84   0.313E+01    0.227E+00
RMM:   2    -0.272544449820E+02   -0.20768E-01   -0.24817E-01    77   0.458E+00    0.695E-01
RMM:   3    -0.272544311718E+02    0.13810E-04   -0.15525E-02    78   0.167E+00    0.269E-01
RMM:   4    -0.272568570267E+02   -0.24259E-02   -0.29812E-03    78   0.534E-01    0.192E-01
RMM:   5    -0.272577198084E+02   -0.86278E-03   -0.60165E-04    80   0.246E-01    0.100E-01
RMM:   6    -0.272579252583E+02   -0.20545E-03   -0.10190E-04    75   0.116E-01    0.329E-02
RMM:   7    -0.272580515719E+02   -0.12631E-03   -0.29233E-05    78   0.411E-02    0.103E-02
RMM:   8    -0.272581976187E+02   -0.14605E-03   -0.10111E-05    69   0.263E-02    0.599E-03
RMM:   9    -0.272584153966E+02   -0.21778E-03   -0.22655E-05    72   0.244E-02    0.623E-03
RMM:  10    -0.272584933255E+02   -0.77929E-04   -0.85117E-06    67   0.200E-02    0.330E-03
RMM:  11    -0.272585742579E+02   -0.80932E-04   -0.91882E-06    65   0.138E-02    0.246E-03
RMM:  12    -0.272586154771E+02   -0.41219E-04   -0.43164E-06    61   0.166E-02    0.177E-03
RMM:  13    -0.272586342445E+02   -0.18767E-04   -0.18429E-06    57   0.101E-02    0.114E-03
RMM:  14    -0.272586499507E+02   -0.15706E-04   -0.12210E-06    55   0.112E-02    0.123E-03
RMM:  15    -0.272586610555E+02   -0.11105E-04   -0.11357E-06    54   0.900E-03    0.105E-03
RMM:  16    -0.272586675136E+02   -0.64581E-05   -0.94746E-07    54   0.103E-02    0.685E-04
RMM:  17    -0.272586694564E+02   -0.19428E-05   -0.46498E-07    50   0.732E-03    0.424E-04
RMM:  18    -0.272586711756E+02   -0.17192E-05   -0.29886E-07    48   0.596E-03    0.404E-04
RMM:  19    -0.272586722859E+02   -0.11104E-05   -0.20245E-07    47   0.573E-03    0.258E-04
RMM:  20    -0.272586729385E+02   -0.65253E-06   -0.13616E-07    45   0.422E-03
  17 F= -.27278081E+02 E0= -.27278081E+02  d E =-.227154E+00  mag=    -1.0000
 trial-energy change:   -0.227154  1 .order   -0.225973   -0.248970   -0.202976
 step:   0.6142(harm=  0.8779)  dis= 0.07235  next Energy=   -27.586500 (dE=-0.536E+00)
 bond charge predicted
       N       E                     dE             d eps       ncg     rms          rms(c)
DAV:   1    -0.273794251313E+02   -0.12075E+00   -0.71138E+01    84   0.905E+01    0.631E+00
RMM:   2    -0.275357932921E+02   -0.15637E+00   -0.18708E+00    75   0.126E+01    0.167E+00
RMM:   3    -0.275401674675E+02   -0.43742E-02   -0.12474E-01    76   0.574E+00    0.935E-01
RMM:   4    -0.275465848227E+02   -0.64174E-02   -0.26337E-02    82   0.136E+00    0.830E-01
RMM:   5    -0.275470335546E+02   -0.44873E-03   -0.35594E-03    74   0.804E-01    0.426E-01
RMM:   6    -0.275479388167E+02   -0.90526E-03   -0.13030E-03    79   0.328E-01    0.197E-01
RMM:   7    -0.275493855963E+02   -0.14468E-02   -0.26927E-04    75   0.193E-01    0.858E-02
RMM:   8    -0.275507123208E+02   -0.13267E-02   -0.23602E-04    77   0.997E-02    0.284E-02
RMM:   9    -0.275512527628E+02   -0.54044E-03   -0.83053E-05    78   0.636E-02    0.137E-02
RMM:  10    -0.275519190154E+02   -0.66625E-03   -0.94898E-05    72   0.424E-02    0.126E-02
RMM:  11    -0.275522842184E+02   -0.36520E-03   -0.47356E-05    71   0.377E-02    0.823E-03
RMM:  12    -0.275525556452E+02   -0.27143E-03   -0.40366E-05    72   0.265E-02    0.758E-03
RMM:  13    -0.275527140138E+02   -0.15837E-03   -0.27209E-05    71   0.286E-02    0.533E-03
RMM:  14    -0.275527713385E+02   -0.57325E-04   -0.69827E-06    64   0.161E-02    0.277E-03
RMM:  15    -0.275528183458E+02   -0.47007E-04   -0.54331E-06    60   0.144E-02    0.226E-03
RMM:  16    -0.275528301633E+02   -0.11818E-04   -0.11938E-06    54   0.118E-02    0.210E-03
RMM:  17    -0.275528386681E+02   -0.85048E-05   -0.71779E-07    54   0.923E-03    0.104E-03
RMM:  18    -0.275528527178E+02   -0.14050E-04   -0.15805E-06    57   0.850E-03    0.117E-03
RMM:  19    -0.275528563054E+02   -0.35876E-05   -0.62010E-07    52   0.100E-02    0.592E-04
RMM:  20    -0.275528571896E+02   -0.88426E-06   -0.34356E-07    50   0.706E-03
  18 F= -.27572963E+02 E0= -.27572963E+02  d E =-.522036E+00  mag=    -1.0000
 curvature:  -0.49 expect dE=-0.346E-01 dE for cont linesearch -0.185E-02
 ZBRENT: interpolating
 opt :   0.5850  next Energy=   -27.574226 (dE=-0.523E+00)
 bond charge predicted
       N       E                     dE             d eps       ncg     rms          rms(c)
DAV:   1    -0.275531416983E+02   -0.28539E-03   -0.29741E-01    96   0.579E+00    0.319E-01
RMM:   2    -0.275536754620E+02   -0.53376E-03   -0.73347E-03    73   0.926E-01    0.117E-01
RMM:   3    -0.275536843742E+02   -0.89122E-05   -0.76735E-04    78   0.336E-01    0.654E-02
RMM:   4    -0.275537420107E+02   -0.57637E-04   -0.10484E-04    82   0.906E-02    0.604E-02
RMM:   5    -0.275537655930E+02   -0.23582E-04   -0.11553E-05    75   0.423E-02    0.333E-02
RMM:   6    -0.275537692029E+02   -0.36099E-05   -0.95562E-06    72   0.264E-02    0.105E-02
RMM:   7    -0.275537743189E+02   -0.51160E-05   -0.11664E-06    54   0.200E-02    0.672E-03
RMM:   8    -0.275537838914E+02   -0.95725E-05   -0.81088E-07    53   0.925E-03    0.323E-03
RMM:   9    -0.275537925216E+02   -0.86302E-05   -0.71530E-07    53   0.844E-03    0.285E-03
RMM:  10    -0.275537964267E+02   -0.39051E-05   -0.40186E-07    53   0.923E-03    0.192E-03
RMM:  11    -0.275537989143E+02   -0.24876E-05   -0.28836E-07    53   0.600E-03    0.772E-04
RMM:  12    -0.275538060066E+02   -0.70923E-05   -0.67468E-07    53   0.640E-03    0.182E-03
RMM:  13    -0.275538090849E+02   -0.30784E-05   -0.44482E-07    53   0.810E-03    0.140E-03
RMM:  14    -0.275538094439E+02   -0.35892E-06   -0.22923E-07    51   0.628E-03
  19 F= -.27573831E+02 E0= -.27573831E+02  d E =-.522904E+00  mag=    -1.0000
 curvature:  -0.33 expect dE=-0.168E-01 dE for cont linesearch -0.115E-03
 ZBRENT: interpolating
 opt :   0.5917  next Energy=   -27.573919 (dE=-0.523E+00)
 bond charge predicted
       N       E                     dE             d eps       ncg     rms          rms(c)
DAV:   1    -0.275538442268E+02   -0.35142E-04   -0.15951E-02    96   0.134E+00    0.741E-02
RMM:   2    -0.275538741939E+02   -0.29967E-04   -0.40161E-04    73   0.214E-01    0.270E-02
RMM:   3    -0.275538748188E+02   -0.62486E-06   -0.40815E-05    77   0.836E-02    0.140E-02
RMM:   4    -0.275538786449E+02   -0.38261E-05   -0.59070E-06    62   0.223E-02    0.127E-02
RMM:   5    -0.275538809479E+02   -0.23030E-05   -0.14267E-06    55   0.230E-02    0.655E-03
RMM:   6    -0.275538800824E+02    0.86547E-06   -0.80683E-07    53   0.104E-02
  20 F= -.27573920E+02 E0= -.27573920E+02  d E =-.522993E+00  mag=    -1.0000
 curvature:  -0.26 expect dE=-0.137E-01 dE for cont linesearch -0.158E-07
 trial: gam= 0.03728 g(F)=  0.515E-01 g(S)=  0.173E-02 ort = 0.349E-03 (trialstep = 0.248E+00)
 search vector abs. value=  0.560E-01
 bond charge predicted
       N       E                     dE             d eps       ncg     rms          rms(c)
DAV:   1    -0.275629666688E+02   -0.90857E-02   -0.64080E-01    90   0.892E+00    0.598E-01
RMM:   2    -0.275638157138E+02   -0.84905E-03   -0.14865E-02    72   0.117E+00    0.190E-01
RMM:   3    -0.275638433770E+02   -0.27663E-04   -0.14575E-03    75   0.602E-01    0.118E-01
RMM:   4    -0.275638828891E+02   -0.39512E-04   -0.25908E-04    86   0.141E-01    0.776E-02
RMM:   5    -0.275638857304E+02   -0.28413E-05   -0.77630E-05    77   0.887E-02    0.282E-02
RMM:   6    -0.275638882499E+02   -0.25195E-05   -0.96404E-06    75   0.370E-02    0.130E-02
RMM:   7    -0.275638937209E+02   -0.54710E-05   -0.23605E-06    59   0.153E-02    0.527E-03
RMM:   8    -0.275638976535E+02   -0.39326E-05   -0.54046E-07    53   0.131E-02    0.264E-03
RMM:   9    -0.275639011776E+02   -0.35241E-05   -0.37355E-07    53   0.613E-03    0.157E-03
RMM:  10    -0.275639033477E+02   -0.21701E-05   -0.19458E-07    53   0.700E-03    0.821E-04
RMM:  11    -0.275639055525E+02   -0.22048E-05   -0.19527E-07    53   0.447E-03    0.574E-04
RMM:  12    -0.275639080200E+02   -0.24675E-05   -0.19266E-07    53   0.545E-03    0.434E-04
RMM:  13    -0.275639094025E+02   -0.13825E-05   -0.16062E-07    53   0.460E-03    0.487E-04
RMM:  14    -0.275639103430E+02   -0.94048E-06   -0.12195E-07    49   0.426E-03
  21 F= -.27584095E+02 E0= -.27584095E+02  d E =-.101748E-01  mag=    -1.0000
 trial-energy change:   -0.010175  1 .order   -0.010193   -0.013200   -0.007186
 step:   0.5445(harm=  0.5445)  dis= 0.00805  next Energy=   -27.588406 (dE=-0.145E-01)
 bond charge predicted
       N       E                     dE             d eps       ncg     rms          rms(c)
DAV:   1    -0.275668079698E+02   -0.28986E-02   -0.91229E-01    84   0.106E+01    0.701E-01
RMM:   2    -0.275680387772E+02   -0.12308E-02   -0.21269E-02    72   0.140E+00    0.219E-01
RMM:   3    -0.275680787910E+02   -0.40014E-04   -0.20757E-03    75   0.710E-01    0.141E-01
RMM:   4    -0.275681309088E+02   -0.52118E-04   -0.36810E-04    87   0.166E-01    0.906E-02
RMM:   5    -0.275681338120E+02   -0.29032E-05   -0.10499E-04    77   0.100E-01    0.324E-02
RMM:   6    -0.275681359527E+02   -0.21407E-05   -0.14403E-05    75   0.450E-02    0.153E-02
RMM:   7    -0.275681425817E+02   -0.66290E-05   -0.25420E-06    61   0.149E-02    0.650E-03
RMM:   8    -0.275681470893E+02   -0.45075E-05   -0.56780E-07    53   0.148E-02    0.390E-03
RMM:   9    -0.275681521596E+02   -0.50703E-05   -0.59392E-07    53   0.668E-03    0.202E-03
RMM:  10    -0.275681545513E+02   -0.23917E-05   -0.23085E-07    53   0.816E-03    0.134E-03
RMM:  11    -0.275681575941E+02   -0.30428E-05   -0.28339E-07    53   0.469E-03    0.597E-04
RMM:  12    -0.275681605821E+02   -0.29880E-05   -0.24204E-07    53   0.641E-03    0.534E-04
RMM:  13    -0.275681622744E+02   -0.16922E-05   -0.21354E-07    53   0.492E-03    0.651E-04
RMM:  14    -0.275681637035E+02   -0.14292E-05   -0.17542E-07    51   0.496E-03    0.448E-04
RMM:  15    -0.275681647659E+02   -0.10624E-05   -0.15589E-07    48   0.407E-03    0.340E-04
RMM:  16    -0.275681653100E+02   -0.54409E-06   -0.10842E-07    46   0.410E-03
  22 F= -.27588531E+02 E0= -.27588531E+02  d E =-.146105E-01  mag=    -1.0000
 curvature:  -0.29 expect dE=-0.133E-01 dE for cont linesearch -0.656E-05
 trial: gam= 0.88987 g(F)=  0.281E-01 g(S)=  0.183E-01 ort = 0.113E-02 (trialstep = 0.186E+00)
 search vector abs. value=  0.927E-01
 bond charge predicted
       N       E                     dE             d eps       ncg     rms          rms(c)
DAV:   1    -0.275769094981E+02   -0.87447E-02   -0.15305E-01    78   0.477E+00    0.256E-01
RMM:   2    -0.275761761674E+02    0.73333E-03   -0.50971E-03    73   0.828E-01    0.104E-01
RMM:   3    -0.275761314972E+02    0.44670E-04   -0.70593E-04    76   0.328E-01    0.711E-02
RMM:   4    -0.275761691046E+02   -0.37607E-04   -0.12595E-04    83   0.946E-02    0.568E-02
RMM:   5    -0.275761969268E+02   -0.27822E-04   -0.25423E-05    75   0.582E-02    0.301E-02
RMM:   6    -0.275762051356E+02   -0.82088E-05   -0.14324E-05    78   0.339E-02    0.102E-02
RMM:   7    -0.275762207109E+02   -0.15575E-04   -0.34229E-06    64   0.211E-02    0.495E-03
RMM:   8    -0.275762306564E+02   -0.99455E-05   -0.82811E-07    53   0.135E-02    0.225E-03
RMM:   9    -0.275762387845E+02   -0.81281E-05   -0.46520E-07    53   0.717E-03    0.114E-03
RMM:  10    -0.275762452297E+02   -0.64452E-05   -0.56589E-07    54   0.683E-03    0.106E-03
RMM:  11    -0.275762485750E+02   -0.33452E-05   -0.32753E-07    53   0.612E-03    0.648E-04
RMM:  12    -0.275762524160E+02   -0.38411E-05   -0.35863E-07    53   0.575E-03    0.694E-04
RMM:  13    -0.275762561621E+02   -0.37460E-05   -0.41117E-07    51   0.618E-03    0.539E-04
RMM:  14    -0.275762578533E+02   -0.16912E-05   -0.30982E-07    50   0.643E-03    0.450E-04
RMM:  15    -0.275762588652E+02   -0.10119E-05   -0.22411E-07    48   0.454E-03    0.221E-04
RMM:  16    -0.275762598678E+02   -0.10026E-05   -0.16463E-07    45   0.434E-03    0.328E-04
RMM:  17    -0.275762608652E+02   -0.99745E-06   -0.14742E-07    46   0.346E-03
  23 F= -.27596647E+02 E0= -.27596647E+02  d E =-.811648E-02  mag=    -1.0000
 ZBRENT: can't locate minimum, use default step
 trial-energy change:   -0.008116  1 .order   -0.008116   -0.008794   -0.007439
 step:   0.7422(harm=  1.2042)  dis= 0.02123  next Energy=   -27.617064 (dE=-0.285E-01)
 bond charge predicted
       N       E                     dE             d eps       ncg     rms          rms(c)
DAV:   1    -0.275981703118E+02   -0.21910E-01   -0.13799E+00    72   0.144E+01    0.772E-01
RMM:   2    -0.275916075082E+02    0.65628E-02   -0.46723E-02    74   0.250E+00    0.320E-01
RMM:   3    -0.275915116293E+02    0.95879E-04   -0.58629E-03    77   0.916E-01    0.179E-01
RMM:   4    -0.275917454677E+02   -0.23384E-03   -0.11064E-03    82   0.304E-01    0.153E-01
RMM:   5    -0.275919455132E+02   -0.20005E-03   -0.24202E-04    78   0.176E-01    0.811E-02
RMM:   6    -0.275920561401E+02   -0.11063E-03   -0.13244E-04    80   0.120E-01    0.309E-02
RMM:   7    -0.275921505407E+02   -0.94401E-04   -0.17681E-05    78   0.406E-02    0.153E-02
RMM:   8    -0.275922082740E+02   -0.57733E-04   -0.63503E-06    66   0.242E-02    0.622E-03
RMM:   9    -0.275922529538E+02   -0.44680E-04   -0.38265E-06    60   0.137E-02    0.268E-03
RMM:  10    -0.275922744834E+02   -0.21530E-04   -0.16143E-06    56   0.138E-02    0.207E-03
RMM:  11    -0.275922916591E+02   -0.17176E-04   -0.17158E-06    56   0.108E-02    0.193E-03
RMM:  12    -0.275923121580E+02   -0.20499E-04   -0.22715E-06    57   0.114E-02    0.114E-03
RMM:  13    -0.275923241258E+02   -0.11968E-04   -0.15322E-06    56   0.108E-02    0.107E-03
RMM:  14    -0.275923302199E+02   -0.60941E-05   -0.11682E-06    56   0.918E-03    0.804E-04
RMM:  15    -0.275923341025E+02   -0.38826E-05   -0.52331E-07    52   0.763E-03    0.575E-04
RMM:  16    -0.275923369889E+02   -0.28863E-05   -0.27862E-07    51   0.631E-03    0.383E-04
RMM:  17    -0.275923394312E+02   -0.24424E-05   -0.25804E-07    51   0.524E-03    0.579E-04
RMM:  18    -0.275923408179E+02   -0.13866E-05   -0.17500E-07    48   0.487E-03    0.258E-04
RMM:  19    -0.275923416800E+02   -0.86216E-06   -0.13994E-07    49   0.388E-03
  24 F= -.27612813E+02 E0= -.27612813E+02  d E =-.242824E-01  mag=    -1.0000
 curvature:  -0.94 expect dE=-0.214E-01 dE for cont linesearch -0.323E-02
 ZBRENT: increasing intervall
 opt :   1.8556  next Energy=   -27.608019 (dE=-0.195E-01)
 bond charge predicted
       N       E                     dE             d eps       ncg     rms          rms(c)
DAV:   1    -0.276099313855E+02   -0.17591E-01   -0.55487E+00    72   0.290E+01    0.156E+00
RMM:   2    -0.275836755510E+02    0.26256E-01   -0.18883E-01    74   0.507E+00    0.633E-01
RMM:   3    -0.275839787668E+02   -0.30322E-03   -0.24691E-02    78   0.193E+00    0.387E-01
RMM:   4    -0.275847629920E+02   -0.78423E-03   -0.45332E-03    85   0.608E-01    0.307E-01
RMM:   5    -0.275853961658E+02   -0.63317E-03   -0.96797E-04    77   0.354E-01    0.170E-01
RMM:   6    -0.275857214858E+02   -0.32532E-03   -0.36184E-04    82   0.187E-01    0.696E-02
RMM:   7    -0.275861093071E+02   -0.38782E-03   -0.11564E-04    85   0.971E-02    0.311E-02
RMM:   8    -0.275862762154E+02   -0.16691E-03   -0.24246E-05    74   0.578E-02    0.170E-02
RMM:   9    -0.275864409645E+02   -0.16475E-03   -0.21290E-05    72   0.257E-02    0.643E-03
RMM:  10    -0.275865036195E+02   -0.62655E-04   -0.66302E-06    62   0.262E-02    0.450E-03
RMM:  11    -0.275865602263E+02   -0.56607E-04   -0.70658E-06    66   0.159E-02    0.318E-03
RMM:  12    -0.275866268446E+02   -0.66618E-04   -0.85329E-06    64   0.194E-02    0.361E-03
RMM:  13    -0.275866501437E+02   -0.23299E-04   -0.33077E-06    59   0.148E-02    0.232E-03
RMM:  14    -0.275866654117E+02   -0.15268E-04   -0.16633E-06    56   0.121E-02    0.123E-03
RMM:  15    -0.275866759986E+02   -0.10587E-04   -0.13717E-06    56   0.106E-02    0.116E-03
RMM:  16    -0.275866838969E+02   -0.78984E-05   -0.67993E-07    54   0.871E-03    0.106E-03
RMM:  17    -0.275866895722E+02   -0.56752E-05   -0.46051E-07    52   0.727E-03    0.832E-04
RMM:  18    -0.275866923665E+02   -0.27943E-05   -0.30652E-07    51   0.683E-03    0.664E-04
RMM:  19    -0.275866944221E+02   -0.20557E-05   -0.28248E-07    50   0.554E-03    0.470E-04
RMM:  20    -0.275866952189E+02   -0.79676E-06   -0.17203E-07    49   0.556E-03
  25 F= -.27607401E+02 E0= -.27607401E+02  d E =-.188707E-01  mag=    -1.0000
 curvature:   1.39 expect dE= 0.200E+00 dE for cont linesearch  0.115E-01
 ZBRENT: bracketing found
 ZBRENT: interpolating
 opt :   1.1791  next Energy=   -27.616721 (dE=-0.282E-01)
 bond charge predicted
       N       E                     dE             d eps       ncg     rms          rms(c)
DAV:   1    -0.276046943529E+02   -0.18000E-01   -0.20665E+00    72   0.178E+01    0.958E-01
RMM:   2    -0.275959431038E+02    0.87512E-02   -0.67681E-02    74   0.305E+00    0.392E-01
RMM:   3    -0.275956811670E+02    0.26194E-03   -0.83799E-03    75   0.114E+00    0.232E-01
RMM:   4    -0.275956709160E+02    0.10251E-04   -0.20093E-03    86   0.391E-01    0.192E-01
RMM:   5    -0.275958806541E+02   -0.20974E-03   -0.35017E-04    78   0.212E-01    0.971E-02
RMM:   6    -0.275959232646E+02   -0.42610E-04   -0.15781E-04    79   0.139E-01    0.375E-02
RMM:   7    -0.275959876034E+02   -0.64339E-04   -0.20010E-05    80   0.468E-02    0.183E-02
RMM:   8    -0.275960320805E+02   -0.44477E-04   -0.71675E-06    72   0.301E-02    0.887E-03
RMM:   9    -0.275960757349E+02   -0.43654E-04   -0.32970E-06    59   0.133E-02    0.473E-03
RMM:  10    -0.275960942060E+02   -0.18471E-04   -0.14354E-06    56   0.182E-02    0.210E-03
RMM:  11    -0.275961186686E+02   -0.24463E-04   -0.18443E-06    57   0.950E-03    0.187E-03
RMM:  12    -0.275961434824E+02   -0.24814E-04   -0.14498E-06    57   0.126E-02    0.170E-03
RMM:  13    -0.275961585345E+02   -0.15052E-04   -0.18865E-06    57   0.110E-02    0.182E-03
RMM:  14    -0.275961654992E+02   -0.69647E-05   -0.57463E-07    53   0.115E-02    0.782E-04
RMM:  15    -0.275961713353E+02   -0.58361E-05   -0.45920E-07    52   0.705E-03    0.588E-04
RMM:  16    -0.275961760570E+02   -0.47217E-05   -0.33836E-07    52   0.783E-03    0.811E-04
RMM:  17    -0.275961788373E+02   -0.27803E-05   -0.29026E-07    52   0.554E-03    0.550E-04
RMM:  18    -0.275961802557E+02   -0.14184E-05   -0.20089E-07    50   0.561E-03    0.330E-04
RMM:  19    -0.275961807659E+02   -0.51012E-06   -0.15180E-07    49   0.423E-03
  26 F= -.27616736E+02 E0= -.27616736E+02  d E =-.282054E-01  mag=    -1.0000
 curvature:  -0.47 expect dE=-0.218E-01 dE for cont linesearch -0.334E-06
 trial: gam= 1.06864 g(F)=  0.421E-01 g(S)=  0.403E-02 ort = 0.256E-03 (trialstep = 0.233E+00)
 search vector abs. value=  0.153E+00
 bond charge predicted
       N       E                     dE             d eps       ncg     rms          rms(c)
DAV:   1    -0.276068157896E+02   -0.10636E-01   -0.80662E-01    78   0.101E+01    0.652E-01
RMM:   2    -0.276058135098E+02    0.10023E-02   -0.24982E-02    73   0.171E+00    0.240E-01
RMM:   3    -0.276059242964E+02   -0.11079E-03   -0.32510E-03    75   0.777E-01    0.146E-01
RMM:   4    -0.276062133501E+02   -0.28905E-03   -0.64014E-04    87   0.208E-01    0.109E-01
RMM:   5    -0.276064052249E+02   -0.19187E-03   -0.10653E-04    78   0.123E-01    0.517E-02
RMM:   6    -0.276064388685E+02   -0.33644E-04   -0.49402E-05    83   0.661E-02    0.152E-02
RMM:   7    -0.276064577010E+02   -0.18833E-04   -0.11306E-05    77   0.364E-02    0.592E-03
RMM:   8    -0.276064790227E+02   -0.21322E-04   -0.13443E-06    54   0.123E-02    0.385E-03
RMM:   9    -0.276065132784E+02   -0.34256E-04   -0.20534E-06    57   0.133E-02    0.255E-03
RMM:  10    -0.276065342398E+02   -0.20961E-04   -0.15826E-06    56   0.125E-02    0.169E-03
RMM:  11    -0.276065443277E+02   -0.10088E-04   -0.11593E-06    55   0.112E-02    0.170E-03
RMM:  12    -0.276065569655E+02   -0.12638E-04   -0.14093E-06    56   0.111E-02    0.962E-04
RMM:  13    -0.276065653879E+02   -0.84224E-05   -0.14246E-06    55   0.106E-02    0.819E-04
RMM:  14    -0.276065685757E+02   -0.31878E-05   -0.58304E-07    53   0.107E-02    0.628E-04
RMM:  15    -0.276065708777E+02   -0.23020E-05   -0.53016E-07    52   0.710E-03    0.487E-04
RMM:  16    -0.276065731958E+02   -0.23181E-05   -0.31196E-07    49   0.634E-03    0.780E-04
RMM:  17    -0.276065742837E+02   -0.10879E-05   -0.21556E-07    47   0.557E-03    0.244E-04
RMM:  18    -0.276065751699E+02   -0.88617E-06   -0.15819E-07    46   0.440E-03
  27 F= -.27627212E+02 E0= -.27627212E+02  d E =-.104758E-01  mag=    -1.0000
 ZBRENT: can't locate minimum, use default step
 trial-energy change:   -0.010476  1 .order   -0.010478   -0.010844   -0.010111
 step:   0.9339(harm=  3.4569)  dis= 0.03410  next Energy=   -27.697015 (dE=-0.803E-01)
 bond charge predicted
       N       E                     dE             d eps       ncg     rms          rms(c)
DAV:   1    -0.276354968655E+02   -0.28923E-01   -0.72320E+00    78   0.302E+01    0.195E+00
RMM:   2    -0.276280975946E+02    0.73993E-02   -0.22837E-01    73   0.515E+00    0.732E-01
RMM:   3    -0.276293945641E+02   -0.12970E-02   -0.29818E-02    75   0.237E+00    0.437E-01
RMM:   4    -0.276311332933E+02   -0.17387E-02   -0.60029E-03    88   0.635E-01    0.308E-01
RMM:   5    -0.276319966727E+02   -0.86338E-03   -0.89160E-04    80   0.374E-01    0.142E-01
RMM:   6    -0.276321859535E+02   -0.18928E-03   -0.39697E-04    81   0.192E-01    0.406E-02
RMM:   7    -0.276322862089E+02   -0.10026E-03   -0.87128E-05    79   0.102E-01    0.168E-02
RMM:   8    -0.276324165209E+02   -0.13031E-03   -0.14913E-05    79   0.338E-02    0.113E-02
RMM:   9    -0.276325791661E+02   -0.16265E-03   -0.11268E-05    68   0.254E-02    0.667E-03
RMM:  10    -0.276327038686E+02   -0.12470E-03   -0.14966E-05    72   0.230E-02    0.386E-03
RMM:  11    -0.276327450252E+02   -0.41157E-04   -0.40835E-06    62   0.200E-02    0.373E-03
RMM:  12    -0.276327849560E+02   -0.39931E-04   -0.45335E-06    64   0.120E-02    0.211E-03
RMM:  13    -0.276328189891E+02   -0.34033E-04   -0.48327E-06    63   0.166E-02    0.237E-03
RMM:  14    -0.276328256775E+02   -0.66885E-05   -0.11487E-06    55   0.111E-02    0.124E-03
RMM:  15    -0.276328345838E+02   -0.89063E-05   -0.11045E-06    54   0.880E-03    0.105E-03
RMM:  16    -0.276328408221E+02   -0.62383E-05   -0.67275E-07    54   0.926E-03    0.805E-04
RMM:  17    -0.276328481361E+02   -0.73140E-05   -0.96628E-07    55   0.746E-03    0.718E-04
RMM:  18    -0.276328510049E+02   -0.28689E-05   -0.37910E-07    50   0.803E-03    0.613E-04
RMM:  19    -0.276328516753E+02   -0.67036E-06   -0.21430E-07    47   0.555E-03
  28 F= -.27653801E+02 E0= -.27653801E+02  d E =-.370646E-01  mag=    -1.0000
 curvature:  -2.20 expect dE=-0.435E+00 dE for cont linesearch -0.147E-01
 ZBRENT: increasing intervall
 opt :   2.3347  next Energy=   -27.682661 (dE=-0.659E-01)
 bond charge predicted
       N       E                     dE             d eps       ncg     rms          rms(c)
DAV:   1    -0.276698901801E+02   -0.37039E-01   -0.28718E+01    78   0.598E+01    0.389E+00
RMM:   2    -0.276436710052E+02    0.26219E-01   -0.92823E-01    73   0.104E+01    0.150E+00
RMM:   3    -0.276464754557E+02   -0.28045E-02   -0.12204E-01    75   0.499E+00    0.870E-01
RMM:   4    -0.276514976898E+02   -0.50222E-02   -0.26114E-02    87   0.135E+00    0.544E-01
RMM:   5    -0.276526482131E+02   -0.11505E-02   -0.36571E-03    79   0.797E-01    0.288E-01
RMM:   6    -0.276531298471E+02   -0.48163E-03   -0.10553E-03    82   0.338E-01    0.127E-01
RMM:   7    -0.276534609044E+02   -0.33106E-03   -0.32738E-04    79   0.196E-01    0.400E-02
RMM:   8    -0.276537094612E+02   -0.24856E-03   -0.70758E-05    84   0.757E-02    0.211E-02
RMM:   9    -0.276539943998E+02   -0.28494E-03   -0.33990E-05    76   0.418E-02    0.122E-02
RMM:  10    -0.276542269117E+02   -0.23251E-03   -0.29165E-05    74   0.331E-02    0.647E-03
RMM:  11    -0.276543758462E+02   -0.14893E-03   -0.21535E-05    74   0.327E-02    0.473E-03
RMM:  12    -0.276544590500E+02   -0.83204E-04   -0.14434E-05    73   0.216E-02    0.328E-03
RMM:  13    -0.276545002263E+02   -0.41176E-04   -0.85084E-06    66   0.200E-02    0.308E-03
RMM:  14    -0.276545106242E+02   -0.10398E-04   -0.13058E-06    54   0.149E-02    0.194E-03
RMM:  15    -0.276545239507E+02   -0.13326E-04   -0.23826E-06    58   0.975E-03    0.198E-03
RMM:  16    -0.276545318757E+02   -0.79250E-05   -0.96584E-07    55   0.113E-02    0.110E-03
RMM:  17    -0.276545396014E+02   -0.77257E-05   -0.88741E-07    54   0.798E-03    0.102E-03
RMM:  18    -0.276545459899E+02   -0.63885E-05   -0.60977E-07    54   0.979E-03    0.710E-04
RMM:  19    -0.276545495454E+02   -0.35555E-05   -0.52115E-07    52   0.666E-03    0.583E-04
RMM:  20    -0.276545518759E+02   -0.23305E-05   -0.24061E-07    49   0.665E-03    0.376E-04
RMM:  21    -0.276545535637E+02   -0.16877E-05   -0.19877E-07    49   0.481E-03    0.391E-04
RMM:  22    -0.276545542027E+02   -0.63898E-06   -0.12304E-07    47   0.487E-03
  29 F= -.27676329E+02 E0= -.27676329E+02  d E =-.595927E-01  mag=    -1.0000
 curvature:  -4.31 expect dE=-0.414E+01 dE for cont linesearch -0.727E-03
 trial: gam=20.89844 g(F)=  0.784E+00 g(S)=  0.175E+00 ort =-0.507E-02 (trialstep = 0.148E-02)
 search vector abs. value=  0.674E+02
 bond charge predicted
       N       E                     dE             d eps       ncg     rms          rms(c)
DAV:   1    -0.276558046425E+02   -0.12511E-02   -0.13248E-02    96   0.133E+00    0.835E-02
RMM:   2    -0.276557857509E+02    0.18892E-04   -0.42252E-04    73   0.228E-01    0.312E-02
RMM:   3    -0.276557864407E+02   -0.68989E-06   -0.53854E-05    74   0.107E-01    0.183E-02
RMM:   4    -0.276557902833E+02   -0.38426E-05   -0.11253E-05    71   0.287E-02    0.110E-02
RMM:   5    -0.276557902271E+02    0.56241E-07   -0.28635E-06    60   0.357E-02
  30 F= -.27677585E+02 E0= -.27677585E+02  d E =-.125653E-02  mag=    -1.0000
 ZBRENT: can't locate minimum, use default step
 trial-energy change:   -0.001257  1 .order   -0.001264   -0.001263   -0.001265
 step:   0.0059(harm=  0.0059)  dis= 0.00458  next Energy=   -27.681396 (dE=-0.507E-02)
 bond charge predicted
       N       E                     dE             d eps       ncg     rms          rms(c)
DAV:   1    -0.276595877772E+02   -0.37975E-02   -0.11903E-01    90   0.399E+00    0.251E-01
RMM:   2    -0.276594322749E+02    0.15550E-03   -0.38490E-03    74   0.684E-01    0.953E-02
RMM:   3    -0.276594343073E+02   -0.20324E-05   -0.44653E-04    74   0.301E-01    0.569E-02
RMM:   4    -0.276594573173E+02   -0.23010E-04   -0.11415E-04    87   0.879E-02    0.356E-02
RMM:   5    -0.276594622217E+02   -0.49044E-05   -0.16982E-05    77   0.501E-02    0.215E-02
RMM:   6    -0.276594710240E+02   -0.88023E-05   -0.32916E-06    63   0.218E-02    0.877E-03
RMM:   7    -0.276594778125E+02   -0.67885E-05   -0.21527E-06    55   0.197E-02    0.450E-03
RMM:   8    -0.276594813228E+02   -0.35102E-05   -0.74665E-07    53   0.155E-02    0.176E-03
RMM:   9    -0.276594849884E+02   -0.36656E-05   -0.43710E-07    53   0.843E-03    0.149E-03
RMM:  10    -0.276594890550E+02   -0.40666E-05   -0.33015E-07    53   0.940E-03    0.906E-04
RMM:  11    -0.276594918568E+02   -0.28018E-05   -0.30765E-07    52   0.669E-03    0.440E-04
RMM:  12    -0.276594948175E+02   -0.29608E-05   -0.29093E-07    53   0.724E-03    0.755E-04
RMM:  13    -0.276594969012E+02   -0.20836E-05   -0.28459E-07    53   0.609E-03    0.393E-04
RMM:  14    -0.276594981526E+02   -0.12514E-05   -0.21646E-07    53   0.616E-03    0.402E-04
RMM:  15    -0.276594991633E+02   -0.10107E-05   -0.18481E-07    47   0.450E-03    0.298E-04
RMM:  16    -0.276594999854E+02   -0.82210E-06   -0.14270E-07    46   0.467E-03
  31 F= -.27681357E+02 E0= -.27681357E+02  d E =-.502853E-02  mag=    -1.0000
 curvature:  -0.35 expect dE=-0.365E+00 dE for cont linesearch -0.369E-02
 ZBRENT: increasing intervall
 opt :   0.0148  next Energy=   -27.688725 (dE=-0.124E-01)
 bond charge predicted
       N       E                     dE             d eps       ncg     rms          rms(c)
DAV:   1    -0.276671099734E+02   -0.76108E-02   -0.47590E-01    84   0.798E+00    0.501E-01
RMM:   2    -0.276665253323E+02    0.58464E-03   -0.15292E-02    73   0.140E+00    0.189E-01
RMM:   3    -0.276665661635E+02   -0.40831E-04   -0.19661E-03    75   0.622E-01    0.111E-01
RMM:   4    -0.276666467143E+02   -0.80551E-04   -0.43683E-04    88   0.175E-01    0.778E-02
RMM:   5    -0.276666793765E+02   -0.32662E-04   -0.60384E-05    78   0.943E-02    0.366E-02
RMM:   6    -0.276667046509E+02   -0.25274E-04   -0.26793E-05    82   0.520E-02    0.102E-02
RMM:   7    -0.276667113259E+02   -0.66750E-05   -0.41298E-06    63   0.250E-02    0.501E-03
RMM:   8    -0.276667205101E+02   -0.91841E-05   -0.11459E-06    54   0.143E-02    0.236E-03
RMM:   9    -0.276667300219E+02   -0.95118E-05   -0.61247E-07    53   0.118E-02    0.203E-03
RMM:  10    -0.276667405488E+02   -0.10527E-04   -0.10557E-06    55   0.104E-02    0.123E-03
RMM:  11    -0.276667453497E+02   -0.48009E-05   -0.52721E-07    53   0.114E-02    0.895E-04
RMM:  12    -0.276667496760E+02   -0.43263E-05   -0.54627E-07    53   0.820E-03    0.864E-04
RMM:  13    -0.276667540111E+02   -0.43351E-05   -0.65218E-07    54   0.936E-03    0.562E-04
RMM:  14    -0.276667556813E+02   -0.16703E-05   -0.37251E-07    53   0.722E-03    0.677E-04
RMM:  15    -0.276667567749E+02   -0.10936E-05   -0.24252E-07    52   0.687E-03    0.400E-04
RMM:  16    -0.276667583878E+02   -0.16129E-05   -0.24226E-07    50   0.479E-03    0.320E-04
RMM:  17    -0.276667594185E+02   -0.10308E-05   -0.15761E-07    46   0.537E-03    0.323E-04
RMM:  18    -0.276667600768E+02   -0.65825E-06   -0.12816E-07    46   0.353E-03
  32 F= -.27688745E+02 E0= -.27688745E+02  d E =-.124165E-01  mag=    -1.0000
 curvature:  -0.70 expect dE=-0.818E+00 dE for cont linesearch -0.685E-02
 ZBRENT: increasing intervall
 opt :   0.0326  next Energy=   -27.702639 (dE=-0.263E-01)
 bond charge predicted
       N       E                     dE             d eps       ncg     rms          rms(c)
DAV:   1    -0.276818242305E+02   -0.15065E-01   -0.18981E+00    84   0.159E+01    0.995E-01
RMM:   2    -0.276794545271E+02    0.23697E-02   -0.61191E-02    73   0.282E+00    0.373E-01
RMM:   3    -0.276796337129E+02   -0.17919E-03   -0.79009E-03    75   0.125E+00    0.218E-01
RMM:   4    -0.276798981435E+02   -0.26443E-03   -0.18039E-03    88   0.356E-01    0.151E-01
RMM:   5    -0.276800048680E+02   -0.10672E-03   -0.23578E-04    79   0.187E-01    0.720E-02
RMM:   6    -0.276800771316E+02   -0.72264E-04   -0.10271E-04    82   0.104E-01    0.212E-02
RMM:   7    -0.276800988138E+02   -0.21682E-04   -0.19593E-05    83   0.486E-02    0.914E-03
RMM:   8    -0.276801227449E+02   -0.23931E-04   -0.22343E-06    57   0.181E-02    0.472E-03
RMM:   9    -0.276801567335E+02   -0.33989E-04   -0.33286E-06    60   0.153E-02    0.329E-03
RMM:  10    -0.276801734717E+02   -0.16738E-04   -0.17632E-06    57   0.160E-02    0.185E-03
RMM:  11    -0.276801840911E+02   -0.10619E-04   -0.16122E-06    56   0.119E-02    0.184E-03
RMM:  12    -0.276801977844E+02   -0.13693E-04   -0.15942E-06    55   0.133E-02    0.133E-03
RMM:  13    -0.276802048183E+02   -0.70339E-05   -0.15152E-06    56   0.124E-02    0.109E-03
RMM:  14    -0.276802076894E+02   -0.28711E-05   -0.66654E-07    53   0.116E-02    0.838E-04
RMM:  15    -0.276802100205E+02   -0.23311E-05   -0.50127E-07    53   0.867E-03    0.811E-04
RMM:  16    -0.276802127082E+02   -0.26877E-05   -0.39852E-07    51   0.785E-03    0.413E-04
RMM:  17    -0.276802147374E+02   -0.20292E-05   -0.33428E-07    50   0.667E-03    0.577E-04
RMM:  18    -0.276802158559E+02   -0.11185E-05   -0.22364E-07    46   0.593E-03    0.244E-04
RMM:  19    -0.276802166435E+02   -0.78757E-06   -0.15291E-07    47   0.450E-03
  33 F= -.27702471E+02 E0= -.27702471E+02  d E =-.261425E-01  mag=    -1.0000
 curvature:  -1.42 expect dE=-0.205E+01 dE for cont linesearch -0.105E-01
 ZBRENT: increasing intervall
 opt :   0.0681  next Energy=   -27.723864 (dE=-0.475E-01)
 bond charge predicted
       N       E                     dE             d eps       ncg     rms          rms(c)
DAV:   1    -0.277074317932E+02   -0.27216E-01   -0.75452E+00    84   0.318E+01    0.195E+00
RMM:   2    -0.276975582024E+02    0.98736E-02   -0.24581E-01    73   0.571E+00    0.729E-01
RMM:   3    -0.276976114455E+02   -0.53243E-04   -0.32268E-02    76   0.255E+00    0.453E-01
RMM:   4    -0.276986413527E+02   -0.10299E-02   -0.74001E-03    88   0.684E-01    0.295E-01
RMM:   5    -0.276988701673E+02   -0.22881E-03   -0.92808E-04    80   0.379E-01    0.137E-01
RMM:   6    -0.276990551624E+02   -0.18500E-03   -0.39386E-04    82   0.194E-01    0.445E-02
RMM:   7    -0.276991398152E+02   -0.84653E-04   -0.91078E-05    85   0.108E-01    0.212E-02
RMM:   8    -0.276992046351E+02   -0.64820E-04   -0.13454E-05    77   0.413E-02    0.103E-02
RMM:   9    -0.276992944194E+02   -0.89784E-04   -0.13968E-05    75   0.273E-02    0.498E-03
RMM:  10    -0.276993281479E+02   -0.33729E-04   -0.38473E-06    62   0.202E-02    0.372E-03
RMM:  11    -0.276993531499E+02   -0.25002E-04   -0.33459E-06    61   0.162E-02    0.258E-03
RMM:  12    -0.276993861027E+02   -0.32953E-04   -0.66282E-06    68   0.179E-02    0.232E-03
RMM:  13    -0.276993947589E+02   -0.86562E-05   -0.14672E-06    56   0.141E-02    0.145E-03
RMM:  14    -0.276993996510E+02   -0.48921E-05   -0.67105E-07    53   0.999E-03    0.123E-03
RMM:  15    -0.276994049175E+02   -0.52665E-05   -0.83595E-07    54   0.997E-03    0.108E-03
RMM:  16    -0.276994084034E+02   -0.34859E-05   -0.50386E-07    53   0.862E-03    0.779E-04
RMM:  17    -0.276994107052E+02   -0.23018E-05   -0.36868E-07    53   0.831E-03    0.491E-04
RMM:  18    -0.276994137601E+02   -0.30549E-05   -0.36719E-07    51   0.625E-03    0.513E-04
RMM:  19    -0.276994165440E+02   -0.27839E-05   -0.33646E-07    48   0.689E-03    0.455E-04
RMM:  20    -0.276994171155E+02   -0.57150E-06   -0.19921E-07    47   0.581E-03
  34 F= -.27722268E+02 E0= -.27722268E+02  d E =-.459394E-01  mag=    -1.0000
 curvature:  -2.88 expect dE=-0.601E+01 dE for cont linesearch -0.472E-02
 trial: gam= 0.73245 g(F)=  0.182E+01 g(S)=  0.265E+00 ort = 0.332E+00 (trialstep = 0.148E-01)
 search vector abs. value=  0.387E+02
 bond charge predicted
       N       E                     dE             d eps       ncg     rms          rms(c)
DAV:   1    -0.277348126528E+02   -0.35396E-01   -0.67252E-01    96   0.972E+00    0.482E-01
RMM:   2    -0.277337175029E+02    0.10951E-02   -0.23126E-02    73   0.182E+00    0.207E-01
RMM:   3    -0.277338565670E+02   -0.13906E-03   -0.30511E-03    76   0.718E-01    0.137E-01
RMM:   4    -0.277339386935E+02   -0.82126E-04   -0.67213E-04    87   0.234E-01    0.895E-02
RMM:   5    -0.277339830302E+02   -0.44337E-04   -0.12301E-04    83   0.123E-01    0.431E-02
RMM:   6    -0.277340332769E+02   -0.50247E-04   -0.36778E-05    81   0.659E-02    0.149E-02
RMM:   7    -0.277340507645E+02   -0.17488E-04   -0.68188E-06    73   0.277E-02    0.727E-03
RMM:   8    -0.277340639716E+02   -0.13207E-04   -0.10869E-06    53   0.182E-02    0.376E-03
RMM:   9    -0.277340795775E+02   -0.15606E-04   -0.12085E-06    54   0.113E-02    0.169E-03
RMM:  10    -0.277340881014E+02   -0.85239E-05   -0.72513E-07    54   0.126E-02    0.104E-03
RMM:  11    -0.277340976439E+02   -0.95425E-05   -0.68438E-07    53   0.917E-03    0.113E-03
RMM:  12    -0.277341073124E+02   -0.96685E-05   -0.98766E-07    55   0.114E-02    0.561E-04
RMM:  13    -0.277341114318E+02   -0.41194E-05   -0.66834E-07    54   0.780E-03    0.684E-04
RMM:  14    -0.277341130654E+02   -0.16336E-05   -0.27181E-07    53   0.820E-03    0.426E-04
RMM:  15    -0.277341153222E+02   -0.22568E-05   -0.26953E-07    51   0.543E-03    0.455E-04
RMM:  16    -0.277341169402E+02   -0.16179E-05   -0.19084E-07    52   0.644E-03    0.319E-04
RMM:  17    -0.277341182664E+02   -0.13262E-05   -0.17243E-07    49   0.410E-03    0.195E-04
RMM:  18    -0.277341191917E+02   -0.92531E-06   -0.11973E-07    46   0.476E-03
  35 F= -.27757189E+02 E0= -.27757189E+02  d E =-.349204E-01  mag=    -1.0000
 ZBRENT: can't locate minimum, use default step
 trial-energy change:   -0.034920  1 .order   -0.034854   -0.034448   -0.035260
 step:   0.0592(harm=  0.0592)  dis= 0.03457  next Energy=   -27.866553 (dE=-0.144E+00)
 bond charge predicted
       N       E                     dE             d eps       ncg     rms          rms(c)
DAV:   1    -0.278491809302E+02   -0.11506E+00   -0.60157E+00    90   0.291E+01    0.143E+00
RMM:   2    -0.278389643953E+02    0.10217E-01   -0.21120E-01    73   0.555E+00    0.606E-01
RMM:   3    -0.278398516025E+02   -0.88721E-03   -0.29366E-02    80   0.220E+00    0.425E-01
RMM:   4    -0.278408469375E+02   -0.99534E-03   -0.57553E-03    88   0.663E-01    0.261E-01
RMM:   5    -0.278411797458E+02   -0.33281E-03   -0.10890E-03    81   0.347E-01    0.121E-01
RMM:   6    -0.278413882251E+02   -0.20848E-03   -0.33573E-04    81   0.216E-01    0.448E-02
RMM:   7    -0.278414855621E+02   -0.97337E-04   -0.74148E-05    88   0.724E-02    0.236E-02
RMM:   8    -0.278415598664E+02   -0.74304E-04   -0.12627E-05    74   0.507E-02    0.101E-02
RMM:   9    -0.278416357192E+02   -0.75853E-04   -0.11563E-05    74   0.248E-02    0.536E-03
RMM:  10    -0.278416776403E+02   -0.41921E-04   -0.37575E-06    60   0.200E-02    0.448E-03
RMM:  11    -0.278417052255E+02   -0.27585E-04   -0.27450E-06    58   0.187E-02    0.313E-03
RMM:  12    -0.278417454690E+02   -0.40243E-04   -0.42872E-06    61   0.153E-02    0.198E-03
RMM:  13    -0.278417656767E+02   -0.20208E-04   -0.21545E-06    57   0.179E-02    0.280E-03
RMM:  14    -0.278417723901E+02   -0.67134E-05   -0.13075E-06    56   0.128E-02    0.130E-03
RMM:  15    -0.278417777797E+02   -0.53896E-05   -0.76608E-07    54   0.102E-02    0.121E-03
RMM:  16    -0.278417843042E+02   -0.65246E-05   -0.69288E-07    54   0.885E-03    0.805E-04
RMM:  17    -0.278417877008E+02   -0.33966E-05   -0.37527E-07    53   0.850E-03    0.670E-04
RMM:  18    -0.278417893320E+02   -0.16313E-05   -0.22938E-07    51   0.662E-03    0.343E-04
RMM:  19    -0.278417918939E+02   -0.25619E-05   -0.22641E-07    50   0.523E-03    0.557E-04
RMM:  20    -0.278417938352E+02   -0.19412E-05   -0.18790E-07    48   0.521E-03    0.330E-04
RMM:  21    -0.278417941994E+02   -0.36422E-06   -0.12685E-07    46   0.451E-03
  36 F= -.27865585E+02 E0= -.27865585E+02  d E =-.143317E+00  mag=    -1.0000
 curvature:  -0.75 expect dE=-0.194E+01 dE for cont linesearch -0.116E+00
 ZBRENT: increasing intervall
 opt :   0.1480  next Energy=   -28.089665 (dE=-0.367E+00)
 bond charge predicted
       N       E                     dE             d eps       ncg     rms          rms(c)
DAV:   1    -0.280916031749E+02   -0.24981E+00   -0.23763E+01    90   0.581E+01    0.283E+00
RMM:   2    -0.280478026268E+02    0.43801E-01   -0.88035E-01    73   0.116E+01    0.117E+00
RMM:   3    -0.280503153668E+02   -0.25127E-02   -0.13500E-01    83   0.469E+00    0.859E-01
RMM:   4    -0.280536377865E+02   -0.33224E-02   -0.22529E-02    83   0.149E+00    0.514E-01
RMM:   5    -0.280546322306E+02   -0.99444E-03   -0.63249E-03    83   0.750E-01    0.220E-01
RMM:   6    -0.280551088370E+02   -0.47661E-03   -0.16191E-03    83   0.508E-01    0.926E-02
RMM:   7    -0.280554848813E+02   -0.37604E-03   -0.41430E-04    88   0.174E-01    0.524E-02
[...]
 635 F= -.33610052E+02 E0= -.33610052E+02  d E =-.268966E-04  mag=    -1.0000
 ZBRENT: can't locate minimum, use default step
 trial-energy change:   -0.000027  1 .order   -0.000035   -0.000039   -0.000031
 step:   0.6549(harm=  0.8327)  dis= 0.00051  next Energy=   -33.610124 (dE=-0.983E-04)
 bond charge predicted
       N       E                     dE             d eps       ncg     rms          rms(c)
DAV:   1    -0.333228651491E+02    0.67766E-04   -0.93508E-03    90   0.154E+00    0.174E-01
RMM:   2    -0.333228243977E+02    0.40751E-04   -0.38526E-04    82   0.327E-01    0.432E-02
RMM:   3    -0.333228200085E+02    0.43892E-05   -0.56764E-05    83   0.148E-01    0.395E-02
RMM:   4    -0.333228172173E+02    0.27912E-05   -0.14216E-05    68   0.575E-02    0.426E-02
RMM:   5    -0.333228166627E+02    0.55462E-06   -0.28448E-06    58   0.451E-02
 636 F= -.33610094E+02 E0= -.33610094E+02  d E =-.681719E-04  mag=    -1.0000
 curvature:  -0.79 expect dE=-0.481E-03 dE for cont linesearch -0.139E-04
 ZBRENT: increasing intervall
 opt :   1.6373  next Energy=   -33.610089 (dE=-0.631E-04)
 bond charge predicted
       N       E                     dE             d eps       ncg     rms          rms(c)
DAV:   1    -0.333226307005E+02    0.18652E-03   -0.37882E-02    96   0.308E+00    0.331E-01
RMM:   2    -0.333224403962E+02    0.19030E-03   -0.15085E-03    81   0.676E-01    0.953E-02
RMM:   3    -0.333224132726E+02    0.27124E-04   -0.25114E-04    83   0.333E-01    0.798E-02
RMM:   4    -0.333224015928E+02    0.11680E-04   -0.64474E-05    85   0.100E-01    0.978E-02
RMM:   5    -0.333223996525E+02    0.19404E-05   -0.84647E-06    66   0.613E-02    0.713E-02
RMM:   6    -0.333223961853E+02    0.34671E-05   -0.11484E-05    73   0.461E-02    0.278E-02
RMM:   7    -0.333223966066E+02   -0.42124E-06   -0.11287E-05    74   0.820E-02    0.153E-02
RMM:   8    -0.333223968741E+02   -0.26747E-06   -0.30276E-06    62   0.310E-02
 637 F= -.33609990E+02 E0= -.33609990E+02  d E =0.357359E-04  mag=    -1.0000
 curvature:   0.29 expect dE= 0.108E-02 dE for cont linesearch  0.286E-04
 ZBRENT: bracketing found
 ZBRENT: interpolating
 opt :   0.9454  next Energy=   -33.610107 (dE=-0.816E-04)
 bond charge predicted
       N       E                     dE             d eps       ncg     rms          rms(c)
DAV:   1    -0.333228057276E+02   -0.40912E-03   -0.19113E-02    96   0.219E+00    0.246E-01
RMM:   2    -0.333227253651E+02    0.80362E-04   -0.78175E-04    82   0.479E-01    0.718E-02
RMM:   3    -0.333227272185E+02   -0.18533E-05   -0.12221E-04    83   0.237E-01    0.569E-02
RMM:   4    -0.333227220812E+02    0.51373E-05   -0.29684E-05    79   0.675E-02    0.654E-02
RMM:   5    -0.333227209479E+02    0.11333E-05   -0.25851E-06    58   0.365E-02    0.459E-02
RMM:   6    -0.333227186731E+02    0.22748E-05   -0.32495E-06    62   0.321E-02    0.206E-02
RMM:   7    -0.333227184172E+02    0.25595E-06   -0.70456E-06    71   0.466E-02
 638 F= -.33610089E+02 E0= -.33610089E+02  d E =-.631376E-04  mag=    -1.0000
 curvature:  -0.13 expect dE=-0.169E-03 dE for cont linesearch -0.214E-05
 ZBRENT: interpolating
 opt :   0.8037  next Energy=   -33.610095 (dE=-0.694E-04)
 bond charge predicted
       N       E                     dE             d eps       ncg     rms          rms(c)
DAV:   1    -0.333227728649E+02   -0.54192E-04   -0.75286E-04    96   0.435E-01    0.515E-02
RMM:   2    -0.333227693289E+02    0.35360E-05   -0.32284E-05    81   0.947E-02    0.107E-02
RMM:   3    -0.333227693971E+02   -0.68235E-07   -0.46719E-06    64   0.460E-02    0.102E-02
RMM:   4    -0.333227690748E+02    0.32233E-06   -0.15125E-06    53   0.303E-02    0.124E-02
RMM:   5    -0.333227691068E+02   -0.31976E-07   -0.60292E-07    50   0.199E-02
 639 F= -.33610094E+02 E0= -.33610094E+02  d E =-.683448E-04  mag=    -1.0000
 curvature:  -0.39 expect dE=-0.347E-03 dE for cont linesearch -0.114E-05
 trial: gam= 3.63383 g(F)=  0.759E-03 g(S)=  0.128E-03 ort =-0.376E-04 (trialstep = 0.202E-01)
 search vector abs. value=  0.701E-02
 bond charge predicted
       N       E                     dE             d eps       ncg     rms          rms(c)
DAV:   1    -0.333227575899E+02    0.11485E-04   -0.18605E-04    96   0.221E-01    0.281E-02
RMM:   2    -0.333227574216E+02    0.16830E-06   -0.71196E-06    66   0.454E-02    0.129E-02
RMM:   3    -0.333227572459E+02    0.17567E-06   -0.23560E-06    50   0.376E-02    0.118E-02
RMM:   4    -0.333227574041E+02   -0.15825E-06   -0.49830E-07    48   0.163E-02    0.323E-03
RMM:   5    -0.333227573873E+02    0.16832E-07   -0.24334E-07    46   0.143E-02
 640 F= -.33610110E+02 E0= -.33610110E+02  d E =-.159917E-04  mag=    -1.0000
 ZBRENT: can't locate minimum, use default step
 trial-energy change:   -0.000016  1 .order   -0.000015   -0.000015   -0.000016
 step:   0.0806(harm=  0.0806)  dis= 0.00022  next Energy=   -33.610160 (dE=-0.661E-04)
 bond charge predicted
       N       E                     dE             d eps       ncg     rms          rms(c)
DAV:   1    -0.333227248458E+02    0.32558E-04   -0.15879E-03    96   0.653E-01    0.675E-02
RMM:   2    -0.333227170397E+02    0.78062E-05   -0.71036E-05    84   0.136E-01    0.184E-02
RMM:   3    -0.333227167964E+02    0.24325E-06   -0.10465E-05    72   0.670E-02    0.161E-02
RMM:   4    -0.333227160595E+02    0.73692E-06   -0.29480E-06    61   0.388E-02    0.169E-02
RMM:   5    -0.333227158943E+02    0.16522E-06   -0.12598E-06    55   0.313E-02
 641 F= -.33610152E+02 E0= -.33610152E+02  d E =-.576978E-04  mag=    -1.0000
 curvature:  -0.58 expect dE=-0.277E-03 dE for cont linesearch -0.428E-04
 ZBRENT: increasing intervall
 opt :   0.2016  next Energy=   -33.610231 (dE=-0.137E-03)
 bond charge predicted
       N       E                     dE             d eps       ncg     rms          rms(c)
DAV:   1    -0.333226474401E+02    0.68619E-04   -0.63138E-03    96   0.130E+00    0.135E-01
RMM:   2    -0.333226107473E+02    0.36693E-04   -0.27374E-04    83   0.271E-01    0.366E-02
RMM:   3    -0.333226084686E+02    0.22786E-05   -0.46934E-05    80   0.135E-01    0.354E-02
RMM:   4    -0.333226060299E+02    0.24388E-05   -0.11114E-05    65   0.668E-02    0.324E-02
RMM:   5    -0.333226048796E+02    0.11502E-05   -0.35935E-06    62   0.483E-02    0.241E-02
RMM:   6    -0.333226050292E+02   -0.14954E-06   -0.34305E-06    64   0.376E-02
 642 F= -.33610207E+02 E0= -.33610207E+02  d E =-.113581E-03  mag=    -1.0000
 curvature:  -1.07 expect dE=-0.195E-03 dE for cont linesearch -0.279E-04
 ZBRENT: increasing intervall
 opt :   0.4435  next Energy=   -33.610239 (dE=-0.146E-03)
 bond charge predicted
       N       E                     dE             d eps       ncg     rms          rms(c)
DAV:   1    -0.333224290092E+02    0.17587E-03   -0.25333E-02    96   0.261E+00    0.279E-01
RMM:   2    -0.333222978674E+02    0.13114E-03   -0.10948E-03    84   0.535E-01    0.739E-02
RMM:   3    -0.333222836275E+02    0.14240E-04   -0.18620E-04    84   0.247E-01    0.693E-02
RMM:   4    -0.333222757756E+02    0.78519E-05   -0.45053E-05    83   0.103E-01    0.713E-02
RMM:   5    -0.333222724927E+02    0.32829E-05   -0.62326E-06    66   0.379E-02    0.487E-02
RMM:   6    -0.333222714455E+02    0.10471E-05   -0.10019E-05    74   0.545E-02    0.186E-02
RMM:   7    -0.333222718531E+02   -0.40755E-06   -0.74254E-06    70   0.436E-02
 643 F= -.33610209E+02 E0= -.33610209E+02  d E =-.115298E-03  mag=    -1.0000
 curvature:  -1.23 expect dE=-0.800E-03 dE for cont linesearch -0.810E-05
 ZBRENT: bracketing found
 ZBRENT: interpolating
 opt :   0.3626  next Energy=   -33.610218 (dE=-0.124E-03)
 bond charge predicted
       N       E                     dE             d eps       ncg     rms          rms(c)
DAV:   1    -0.333224146404E+02   -0.14319E-03   -0.29404E-03    96   0.891E-01    0.956E-02
RMM:   2    -0.333224020557E+02    0.12585E-04   -0.12371E-04    80   0.185E-01    0.302E-02
RMM:   3    -0.333224013884E+02    0.66733E-06   -0.26170E-05    78   0.108E-01    0.241E-02
RMM:   4    -0.333224010500E+02    0.33833E-06   -0.52929E-06    64   0.407E-02    0.199E-02
RMM:   5    -0.333224007978E+02    0.25224E-06   -0.15521E-06    55   0.401E-02
 644 F= -.33610226E+02 E0= -.33610226E+02  d E =-.131987E-03  mag=    -1.0000
 curvature:  -1.32 expect dE=-0.389E-03 dE for cont linesearch -0.928E-05
 ZBRENT: bisectioning
 opt :   0.2821  next Energy=   -33.610244 (dE=-0.150E-03)
 bond charge predicted
       N       E                     dE             d eps       ncg     rms          rms(c)
DAV:   1    -0.333225320384E+02   -0.13099E-03   -0.27989E-03    96   0.871E-01    0.911E-02
RMM:   2    -0.333225129695E+02    0.19069E-04   -0.12724E-04    83   0.186E-01    0.258E-02
RMM:   3    -0.333225132158E+02   -0.24633E-06   -0.21843E-05    77   0.911E-02    0.250E-02
RMM:   4    -0.333225119301E+02    0.12857E-05   -0.54979E-06    65   0.503E-02    0.241E-02
RMM:   5    -0.333225113325E+02    0.59764E-06   -0.18605E-06    58   0.343E-02
 645 F= -.33610225E+02 E0= -.33610225E+02  d E =-.131103E-03  mag=    -1.0000
 curvature:  -2.58 expect dE=-0.376E-03 dE for cont linesearch -0.904E-06
 ZBRENT: interpolating
 opt :   0.2640  next Energy=   -33.610225 (dE=-0.132E-03)
 bond charge predicted
       N       E                     dE             d eps       ncg     rms          rms(c)
DAV:   1    -0.333225360426E+02   -0.24112E-04   -0.12903E-04    96   0.187E-01    0.180E-02
RMM:   2    -0.333225341621E+02    0.18805E-05   -0.54697E-06    64   0.431E-02    0.738E-03
RMM:   3    -0.333225341482E+02    0.13878E-07   -0.14419E-06    50   0.278E-02    0.764E-03
RMM:   4    -0.333225340650E+02    0.83277E-07   -0.67312E-07    48   0.221E-02    0.762E-03
RMM:   5    -0.333225340190E+02    0.45964E-07   -0.42610E-07    47   0.160E-02
 646 F= -.33610223E+02 E0= -.33610223E+02  d E =-.128774E-03  mag=    -1.0000
 curvature:  -1.56 expect dE=-0.218E-03 dE for cont linesearch -0.241E-05
 ZBRENT: interpolating
 opt :   0.2763  next Energy=   -33.610225 (dE=-0.131E-03)
 bond charge predicted
       N       E                     dE             d eps       ncg     rms          rms(c)
DAV:   1    -0.333225188716E+02    0.15193E-04   -0.70326E-05    96   0.136E-01    0.183E-02
RMM:   2    -0.333225187897E+02    0.81855E-07   -0.23441E-06    52   0.265E-02    0.731E-03
RMM:   3    -0.333225187470E+02    0.42745E-07   -0.68026E-07    48   0.203E-02    0.553E-03
RMM:   4    -0.333225187659E+02   -0.18934E-07   -0.27972E-07    46   0.143E-02    0.221E-03
RMM:   5    -0.333225187685E+02   -0.25484E-08   -0.11708E-07    41   0.954E-03
 647 F= -.33610224E+02 E0= -.33610224E+02  d E =-.130471E-03  mag=    -1.0000
 curvature:  -0.09 expect dE=-0.148E-04 dE for cont linesearch -0.250E-06
 ZBRENT: interpolating
 opt :   0.2805  next Energy=   -33.610225 (dE=-0.131E-03)
 bond charge predicted
       N       E                     dE             d eps       ncg     rms          rms(c)
DAV:   1    -0.333225134012E+02    0.53647E-05   -0.74469E-06    96   0.427E-02    0.355E-03
RMM:   2    -0.333225133480E+02    0.53259E-07   -0.30159E-07    44   0.970E-03    0.175E-03
RMM:   3    -0.333225133626E+02   -0.14626E-07   -0.68978E-08    43   0.718E-03    0.105E-03
RMM:   4    -0.333225133609E+02    0.17292E-08   -0.45618E-08    40   0.625E-03    0.162E-03
RMM:   5    -0.333225133554E+02    0.54899E-08   -0.31127E-08    39   0.429E-03
 648 F= -.33610225E+02 E0= -.33610225E+02  d E =-.130980E-03  mag=    -1.0000
 curvature:  -0.01 expect dE=-0.229E-05 dE for cont linesearch -0.298E-07
 ZBRENT: interpolating
 opt :   0.2816  next Energy=   -33.610225 (dE=-0.131E-03)
 bond charge predicted
       N       E                     dE             d eps       ncg     rms          rms(c)
DAV:   1    -0.333225119686E+02    0.13923E-05   -0.40119E-07    54   0.100E-02    0.119E-03
RMM:   2    -0.333225119735E+02   -0.48540E-08   -0.42975E-08    38   0.538E-03    0.130E-03
RMM:   3    -0.333225119755E+02   -0.20530E-08   -0.15700E-08    36   0.312E-03    0.590E-04
RMM:   4    -0.333225119773E+02   -0.17392E-08   -0.81641E-09    35   0.282E-03    0.111E-03
RMM:   5    -0.333225119779E+02   -0.62073E-09   -0.44502E-09    32   0.163E-03
 649 F= -.33610225E+02 E0= -.33610225E+02  d E =-.131123E-03  mag=    -1.0000
 curvature:  -0.01 expect dE=-0.857E-06 dE for cont linesearch -0.935E-08
 ZBRENT: interpolating
 opt :   0.2820  next Energy=   -33.610225 (dE=-0.131E-03)
 bond charge predicted
       N       E                     dE             d eps       ncg     rms          rms(c)
DAV:   1    -0.333225115793E+02    0.39796E-06   -0.37957E-08    36   0.328E-03    0.812E-04
RMM:   2    -0.333225115820E+02   -0.27449E-08   -0.11159E-08    36   0.373E-03    0.105E-03
RMM:   3    -0.333225115824E+02   -0.32492E-09   -0.36397E-09    28   0.143E-03    0.870E-04
RMM:   4    -0.333225115832E+02   -0.88949E-09   -0.19703E-09    27   0.168E-03    0.857E-04
RMM:   5    -0.333225115840E+02   -0.79672E-09   -0.45672E-10    18   0.955E-04
 650 F= -.33610225E+02 E0= -.33610225E+02  d E =-.131160E-03  mag=    -1.0000
 curvature:  -0.00 expect dE=-0.318E-06 dE for cont linesearch -0.321E-08
 ZBRENT: interpolating
 opt :   0.2821  next Energy=   -33.610225 (dE=-0.131E-03)
 bond charge predicted
       N       E                     dE             d eps       ncg     rms          rms(c)
DAV:   1    -0.333225114619E+02    0.12133E-06   -0.62793E-09    36   0.140E-03    0.167E-04
RMM:   2    -0.333225114621E+02   -0.22465E-09   -0.10088E-09    22   0.127E-03    0.310E-04
RMM:   3    -0.333225114621E+02    0.85493E-10    0.00000E+00    12   0.962E-04    0.257E-04
RMM:   4    -0.333225114621E+02   -0.59117E-11    0.00000E+00    12   0.962E-04    0.262E-04
RMM:   5    -0.333225114613E+02    0.77443E-09   -0.12509E-10    15   0.968E-04
 651 F= -.33610225E+02 E0= -.33610225E+02  d E =-.131170E-03  mag=    -1.0000
 curvature:  -0.00 expect dE=-0.110E-06 dE for cont linesearch -0.109E-08
 ZBRENT: interpolating
 opt :   0.2821  next Energy=   -33.610225 (dE=-0.131E-03)
 bond charge predicted
       N       E                     dE             d eps       ncg     rms          rms(c)
DAV:   1    -0.333225114229E+02    0.39202E-07   -0.27955E-09    36   0.101E-03    0.263E-04
RMM:   2    -0.333225114228E+02    0.50250E-10   -0.73523E-11    13   0.795E-04    0.192E-04
RMM:   3    -0.333225114228E+02    0.51841E-10    0.00000E+00     7   0.769E-04    0.108E-04
RMM:   4    -0.333225114227E+02    0.82309E-10    0.00000E+00     9   0.779E-04    0.173E-05
RMM:   5    -0.333225114227E+02   -0.90949E-11    0.00000E+00     7   0.778E-04
 652 F= -.33610225E+02 E0= -.33610225E+02  d E =-.131173E-03  mag=    -1.0000
 curvature:  -0.00 expect dE=-0.357E-07 dE for cont linesearch -0.364E-09
 ZBRENT: interpolating
 opt :   0.2821  next Energy=   -33.610225 (dE=-0.131E-03)
 bond charge predicted
       N       E                     dE             d eps       ncg     rms          rms(c)
DAV:   1    -0.333225114104E+02    0.12265E-07   -0.89683E-10    36   0.756E-04    0.189E-04
RMM:   2    -0.333225114102E+02    0.18758E-09    0.00000E+00    11   0.462E-04    0.114E-04
RMM:   3    -0.333225114101E+02    0.12597E-09    0.00000E+00     9   0.465E-04    0.671E-05
RMM:   4    -0.333225114100E+02    0.89130E-10    0.00000E+00     5   0.465E-04    0.523E-07
RMM:   5    -0.333225114100E+02   -0.22737E-12    0.00000E+00     4   0.465E-04
 653 F= -.33610225E+02 E0= -.33610225E+02  d E =-.131174E-03  mag=    -1.0000
 curvature:  -0.00 expect dE=-0.111E-07 dE for cont linesearch -0.113E-09
 ZBRENT: interpolating
 opt :   0.2821  next Energy=   -33.610225 (dE=-0.131E-03)
 bond charge predicted
       N       E                     dE             d eps       ncg     rms          rms(c)
DAV:   1    -0.333225114061E+02    0.39145E-08   -0.36313E-10    36   0.470E-04    0.869E-05
RMM:   2    -0.333225114061E+02    0.32969E-10    0.00000E+00     7   0.383E-04    0.521E-05
RMM:   3    -0.333225114061E+02    0.20464E-11    0.00000E+00     1   0.386E-04    0.309E-05
RMM:   4    -0.333225114061E+02    0.22737E-12    0.00000E+00     1   0.389E-04    0.512E-07
RMM:   5    -0.333225114061E+02   -0.25011E-11    0.00000E+00     1   0.388E-04
 654 F= -.33610225E+02 E0= -.33610225E+02  d E =-.131174E-03  mag=    -1.0000
 curvature:  -0.00 expect dE=-0.354E-08 dE for cont linesearch -0.362E-10
 ZBRENT: interpolating
 opt :   0.2821  next Energy=   -33.610225 (dE=-0.131E-03)
 bond charge predicted
       N       E                     dE             d eps       ncg     rms          rms(c)
DAV:   1    -0.333225114048E+02    0.12160E-08   -0.20056E-10    36   0.386E-04    0.101E-04
RMM:   2    -0.333225114048E+02    0.85720E-10    0.00000E+00     6   0.260E-04    0.608E-05
RMM:   3    -0.333225114047E+02    0.75033E-10    0.00000E+00     1   0.263E-04    0.356E-05
RMM:   4    -0.333225114046E+02    0.74579E-10    0.00000E+00     1   0.264E-04    0.289E-07
RMM:   5    -0.333225114046E+02   -0.15916E-11    0.00000E+00     1   0.264E-04
 655 F= -.33610225E+02 E0= -.33610225E+02  d E =-.131174E-03  mag=    -1.0000
 curvature:  -0.00 expect dE=-0.111E-08 dE for cont linesearch -0.114E-10
 ZBRENT: interpolating
 opt :   0.2821  next Energy=   -33.610225 (dE=-0.131E-03)
 bond charge predicted
       N       E                     dE             d eps       ncg     rms          rms(c)
DAV:   1    -0.333225114045E+02    0.95724E-10   -0.10289E-10    36   0.264E-04    0.515E-05
RMM:   2    -0.333225114042E+02    0.30286E-09    0.00000E+00     4   0.229E-04    0.310E-05
RMM:   3    -0.333225114042E+02    0.18190E-11    0.00000E+00     1   0.231E-04    0.185E-05
RMM:   4    -0.333225114042E+02   -0.90949E-11    0.00000E+00     1   0.234E-04    0.279E-07
RMM:   5    -0.333225114042E+02    0.15916E-11    0.00000E+00     1   0.234E-04
 656 F= -.33610225E+02 E0= -.33610225E+02  d E =-.131174E-03  mag=    -1.0000
 curvature:  -0.00 expect dE=-0.353E-09 dE for cont linesearch -0.364E-11
 ZBRENT: interpolating
 opt :   0.2821  next Energy=   -33.610225 (dE=-0.131E-03)
 bond charge predicted
       N       E                     dE             d eps       ncg     rms          rms(c)
DAV:   1    -0.333225114042E+02    0.62528E-10   -0.78524E-11    36   0.233E-04    0.675E-05
RMM:   2    -0.333225114040E+02    0.11551E-09    0.00000E+00     2   0.156E-04    0.407E-05
RMM:   3    -0.333225114040E+02    0.44338E-10    0.00000E+00     1   0.158E-04    0.241E-05
RMM:   4    -0.333225114040E+02    0.31605E-10    0.00000E+00     1   0.159E-04    0.199E-07
RMM:   5    -0.333225114039E+02    0.12051E-10    0.00000E+00     1   0.159E-04
 657 F= -.33610225E+02 E0= -.33610225E+02  d E =-.131174E-03  mag=    -1.0000
 curvature:  -0.00 expect dE=-0.111E-09 dE for cont linesearch -0.115E-11
 ZBRENT:  can not reach accuracy
 opt :   0.0000  next Energy=     0.000000 (dE= 0.336E+02)
 bond charge predicted
       N       E                     dE             d eps       ncg     rms          rms(c)
DAV:   1    -0.333229546619E+02   -0.44326E-03   -0.34808E-02    96   0.305E+00    0.332E-01
RMM:   2    -0.333227495962E+02    0.20507E-03   -0.15446E-03    84   0.631E-01    0.886E-02
RMM:   3    -0.333227854968E+02   -0.35901E-04   -0.27910E-04    84   0.299E-01    0.830E-02
RMM:   4    -0.333227739349E+02    0.11562E-04   -0.65784E-05    85   0.128E-01    0.819E-02
RMM:   5    -0.333227694896E+02    0.44453E-05   -0.83959E-06    69   0.407E-02    0.586E-02
RMM:   6    -0.333227679508E+02    0.15388E-05   -0.10883E-05    74   0.581E-02    0.204E-02
RMM:   7    -0.333227688042E+02   -0.85342E-06   -0.11234E-05    72   0.490E-02    0.200E-02
RMM:   8    -0.333227690755E+02   -0.27131E-06   -0.32140E-06    58   0.542E-02
 658 F= -.33610094E+02 E0= -.33610094E+02  d E =0.378372E-07  mag=    -1.0000
 curvature:   0.00 expect dE= 0.547-320 dE for cont linesearch  0.543-321
 ZBRENT: fatal error in bracketing
     please rerun with smaller EDIFF, or copy CONTCAR
     to POSCAR and continue
