       N       E                     dE             d eps       ncg     rms          rms(c)
DAV:   1     0.134246367405E+03    0.13425E+03   -0.26420E+03   120   0.377E+02
DAV:   2     0.562926857694E+02   -0.77954E+02   -0.77243E+02   108   0.956E+01
DAV:   3    -0.363801379764E+01   -0.59931E+02   -0.59269E+02   144   0.753E+01
DAV:   4    -0.207147582706E+02   -0.17077E+02   -0.16906E+02   120   0.426E+01
DAV:   5    -0.212790579216E+02   -0.56430E+00   -0.54678E+00    96   0.886E+00    0.107E+01
RMM:   6    -0.214520612976E+02   -0.17300E+00   -0.56174E+00    80   0.140E+01    0.115E+01
RMM:   7    -0.201840251099E+02    0.12680E+01   -0.19182E+00    75   0.907E+00    0.658E+00
RMM:   8    -0.209830254307E+02   -0.79900E+00   -0.84622E-01    78   0.660E+00    0.129E+01
RMM:   9    -0.196786990864E+02    0.13043E+01   -0.54200E-01    78   0.503E+00    0.340E+00
RMM:  10    -0.191024061974E+02    0.57629E+00   -0.21892E-01    74   0.350E+00    0.213E+00
RMM:  11    -0.192840299679E+02   -0.18162E+00   -0.13468E-01    72   0.316E+00    0.143E+00
RMM:  12    -0.196048577047E+02   -0.32083E+00   -0.12385E-01    75   0.264E+00    0.115E+00
RMM:  13    -0.197472353250E+02   -0.14238E+00   -0.33592E-02    75   0.138E+00    0.712E-01
RMM:  14    -0.199361188044E+02   -0.18888E+00   -0.27693E-02    74   0.104E+00    0.640E-01
RMM:  15    -0.200152405776E+02   -0.79122E-01   -0.10132E-02    79   0.670E-01    0.544E-01
RMM:  16    -0.200564364453E+02   -0.41196E-01   -0.35780E-03    78   0.394E-01    0.555E-01
RMM:  17    -0.199031869823E+02    0.15325E+00   -0.11467E-02    73   0.784E-01    0.516E-01
RMM:  18    -0.197185641022E+02    0.18462E+00   -0.39841E-02    76   0.145E+00    0.471E-01
RMM:  19    -0.198304884077E+02   -0.11192E+00   -0.64325E-03    74   0.712E-01    0.355E-01
RMM:  20    -0.199034917263E+02   -0.73003E-01   -0.18459E-02    77   0.890E-01    0.206E-01
RMM:  21    -0.200492640884E+02   -0.14577E+00   -0.46110E-03    74   0.480E-01    0.147E-01
RMM:  22    -0.201432952259E+02   -0.94031E-01   -0.47867E-03    77   0.412E-01    0.120E-01
RMM:  23    -0.201843459210E+02   -0.41051E-01   -0.11722E-03    75   0.247E-01    0.874E-02
RMM:  24    -0.202782169683E+02   -0.93871E-01   -0.15955E-03    74   0.197E-01    0.648E-02
RMM:  25    -0.203427362375E+02   -0.64519E-01   -0.15994E-03    78   0.203E-01    0.530E-02
RMM:  26    -0.203681644889E+02   -0.25428E-01   -0.70172E-04    80   0.146E-01    0.401E-02
RMM:  27    -0.203913374687E+02   -0.23173E-01   -0.49215E-04    78   0.102E-01    0.254E-02
RMM:  28    -0.204028901309E+02   -0.11553E-01   -0.12978E-04    77   0.571E-02    0.192E-02
RMM:  29    -0.204148020444E+02   -0.11912E-01   -0.92746E-05    77   0.489E-02    0.163E-02
RMM:  30    -0.204189428157E+02   -0.41408E-02   -0.45086E-05    81   0.398E-02    0.113E-02
RMM:  31    -0.204238354437E+02   -0.48926E-02   -0.13287E-05    72   0.274E-02    0.908E-03
RMM:  32    -0.204271141738E+02   -0.32787E-02   -0.63667E-06    67   0.147E-02    0.744E-03
RMM:  33    -0.204283901351E+02   -0.12760E-02   -0.18247E-06    56   0.117E-02    0.524E-03
RMM:  34    -0.204295026349E+02   -0.11125E-02   -0.18920E-06    57   0.985E-03    0.515E-03
RMM:  35    -0.204303138138E+02   -0.81118E-03   -0.12199E-06    53   0.106E-02    0.279E-03
RMM:  36    -0.204306585574E+02   -0.34474E-03   -0.66115E-07    51   0.829E-03    0.212E-03
RMM:  37    -0.204308787458E+02   -0.22019E-03   -0.65914E-07    50   0.598E-03    0.150E-03
RMM:  38    -0.204311449884E+02   -0.26624E-03   -0.66117E-07    51   0.634E-03    0.111E-03
RMM:  39    -0.204312925990E+02   -0.14761E-03   -0.37564E-07    50   0.496E-03    0.872E-04
RMM:  40    -0.204313335786E+02   -0.40980E-04   -0.16503E-07    49   0.350E-03    0.619E-04
RMM:  41    -0.204313693620E+02   -0.35783E-04   -0.10114E-07    48   0.263E-03    0.517E-04
RMM:  42    -0.204314262886E+02   -0.56927E-04   -0.79091E-08    48   0.266E-03    0.345E-04
RMM:  43    -0.204314488108E+02   -0.22522E-04   -0.72075E-08    48   0.226E-03    0.280E-04
RMM:  44    -0.204314577729E+02   -0.89621E-05   -0.27840E-08    41   0.196E-03    0.209E-04
RMM:  45    -0.204314698325E+02   -0.12060E-04   -0.24639E-08    46   0.166E-03    0.114E-04
RMM:  46    -0.204314746030E+02   -0.47705E-05   -0.46955E-09    33   0.108E-03    0.563E-05
RMM:  47    -0.204314774896E+02   -0.28866E-05   -0.16322E-09    31   0.932E-04    0.482E-05
RMM:  48    -0.204314792847E+02   -0.17951E-05    0.00000E+00    29   0.925E-04    0.401E-05
RMM:  49    -0.204314804066E+02   -0.11219E-05   -0.48102E-10    28   0.937E-04    0.379E-05
RMM:  50    -0.204314807358E+02   -0.32919E-06    0.00000E+00    28   0.881E-04
   1 F= -.20454111E+02 E0= -.20454111E+02  d E =-.204541E+02  mag=     1.0000
       N       E                     dE             d eps       ncg     rms          rms(c)
DAV:   1    -0.213073758015E+02   -0.87590E+00   -0.13286E+02    72   0.109E+02    0.527E+00
RMM:   2    -0.214829719185E+02   -0.17560E+00   -0.32668E+00    72   0.150E+01    0.321E+00
RMM:   3    -0.216277581392E+02   -0.14479E+00   -0.23799E-01    73   0.309E+00    0.128E+00
RMM:   4    -0.216262117908E+02    0.15463E-02   -0.40610E-02    74   0.186E+00    0.709E-01
RMM:   5    -0.216302771019E+02   -0.40653E-02   -0.31521E-02    77   0.124E+00    0.405E-01
RMM:   6    -0.216364814171E+02   -0.62043E-02   -0.47008E-03    78   0.563E-01    0.564E-01
RMM:   7    -0.216348745381E+02    0.16069E-02   -0.17133E-03    72   0.341E-01    0.148E-01
RMM:   8    -0.216371295725E+02   -0.22550E-02   -0.26657E-03    79   0.356E-01    0.668E-02
RMM:   9    -0.216378390858E+02   -0.70951E-03   -0.15201E-04    74   0.986E-02    0.316E-02
RMM:  10    -0.216385173619E+02   -0.67828E-03   -0.13504E-04    78   0.762E-02    0.139E-02
RMM:  11    -0.216392978769E+02   -0.78052E-03   -0.40743E-05    75   0.327E-02    0.928E-03
RMM:  12    -0.216397011246E+02   -0.40325E-03   -0.11937E-05    70   0.189E-02    0.616E-03
RMM:  13    -0.216402010476E+02   -0.49992E-03   -0.14452E-05    68   0.158E-02    0.487E-03
RMM:  14    -0.216405218309E+02   -0.32078E-03   -0.11649E-05    70   0.152E-02    0.505E-03
RMM:  15    -0.216405543779E+02   -0.32547E-04   -0.70518E-07    53   0.763E-03    0.522E-03
RMM:  16    -0.216404869360E+02    0.67442E-04   -0.52360E-07    51   0.885E-03    0.551E-03
RMM:  17    -0.216403807956E+02    0.10614E-03   -0.19124E-06    54   0.923E-03    0.527E-03
RMM:  18    -0.216404247531E+02   -0.43957E-04   -0.21756E-06    56   0.919E-03    0.413E-03
RMM:  19    -0.216405279547E+02   -0.10320E-03   -0.45537E-06    64   0.120E-02    0.296E-03
RMM:  20    -0.216408001835E+02   -0.27223E-03   -0.10662E-05    72   0.170E-02    0.192E-03
RMM:  21    -0.216409492289E+02   -0.14905E-03   -0.34242E-06    62   0.115E-02    0.114E-03
RMM:  22    -0.216410555350E+02   -0.10631E-03   -0.17436E-06    57   0.894E-03    0.811E-04
RMM:  23    -0.216411198624E+02   -0.64327E-04   -0.16745E-06    56   0.770E-03    0.979E-04
RMM:  24    -0.216411458922E+02   -0.26030E-04   -0.64039E-07    50   0.638E-03    0.465E-04
RMM:  25    -0.216411600841E+02   -0.14192E-04   -0.35388E-07    50   0.482E-03    0.350E-04
RMM:  26    -0.216411727693E+02   -0.12685E-04   -0.27920E-07    48   0.388E-03    0.276E-04
RMM:  27    -0.216411876602E+02   -0.14891E-04   -0.32845E-07    51   0.399E-03    0.221E-04
RMM:  28    -0.216411943680E+02   -0.67079E-05   -0.16089E-07    42   0.349E-03    0.137E-04
RMM:  29    -0.216411971339E+02   -0.27658E-05   -0.91890E-08    40   0.237E-03    0.101E-04
RMM:  30    -0.216412000375E+02   -0.29037E-05   -0.66619E-08    41   0.226E-03    0.102E-04
RMM:  31    -0.216412016662E+02   -0.16287E-05   -0.37805E-08    38   0.175E-03    0.517E-05
RMM:  32    -0.216412033307E+02   -0.16645E-05   -0.27265E-08    38   0.157E-03    0.488E-05
RMM:  33    -0.216412040641E+02   -0.73337E-06   -0.20287E-08    40   0.137E-03
   2 F= -.21661008E+02 E0= -.21661008E+02  d E =-.120690E+01  mag=     1.0000
       N       E                     dE             d eps       ncg     rms          rms(c)
DAV:   1    -0.217181388863E+02   -0.76936E-01   -0.15060E+01    90   0.364E+01    0.189E+00
RMM:   2    -0.217119073012E+02    0.62316E-02   -0.31576E-01    72   0.498E+00    0.128E+00
RMM:   3    -0.217313290627E+02   -0.19422E-01   -0.32914E-02    74   0.118E+00    0.460E-01
RMM:   4    -0.217318548145E+02   -0.52575E-03   -0.51040E-03    73   0.693E-01    0.243E-01
RMM:   5    -0.217328652074E+02   -0.10104E-02   -0.27927E-03    80   0.358E-01    0.282E-01
RMM:   6    -0.217331044263E+02   -0.23922E-03   -0.85204E-04    75   0.232E-01    0.176E-01
RMM:   7    -0.217334138168E+02   -0.30939E-03   -0.19108E-04    72   0.121E-01    0.401E-02
RMM:   8    -0.217338390067E+02   -0.42519E-03   -0.19184E-04    78   0.101E-01    0.157E-02
RMM:   9    -0.217339999039E+02   -0.16090E-03   -0.14089E-05    74   0.250E-02    0.897E-03
RMM:  10    -0.217342199198E+02   -0.22002E-03   -0.15608E-05    77   0.240E-02    0.515E-03
RMM:  11    -0.217343638187E+02   -0.14390E-03   -0.41244E-06    63   0.115E-02    0.325E-03
RMM:  12    -0.217344454013E+02   -0.81583E-04   -0.17075E-06    55   0.992E-03    0.284E-03
RMM:  13    -0.217345139143E+02   -0.68513E-04   -0.14063E-06    55   0.743E-03    0.269E-03
RMM:  14    -0.217345726266E+02   -0.58712E-04   -0.13109E-06    54   0.865E-03    0.308E-03
RMM:  15    -0.217345298818E+02    0.42745E-04   -0.38219E-07    48   0.777E-03    0.307E-03
RMM:  16    -0.217345464542E+02   -0.16572E-04   -0.13194E-07    48   0.315E-03    0.318E-03
RMM:  17    -0.217345100908E+02    0.36363E-04   -0.50453E-07    48   0.741E-03    0.360E-03
RMM:  18    -0.217344589103E+02    0.51181E-04   -0.15554E-06    52   0.739E-03    0.392E-03
RMM:  19    -0.217344667771E+02   -0.78669E-05   -0.92456E-07    50   0.675E-03    0.243E-03
RMM:  20    -0.217345307330E+02   -0.63956E-04   -0.12139E-06    53   0.665E-03    0.175E-03
RMM:  21    -0.217346396555E+02   -0.10892E-03   -0.20945E-06    58   0.820E-03    0.124E-03
RMM:  22    -0.217347027334E+02   -0.63078E-04   -0.20622E-06    59   0.865E-03    0.974E-04
RMM:  23    -0.217347296648E+02   -0.26931E-04   -0.74301E-07    51   0.652E-03    0.966E-04
RMM:  24    -0.217347481698E+02   -0.18505E-04   -0.69107E-07    50   0.688E-03    0.533E-04
RMM:  25    -0.217347709969E+02   -0.22827E-04   -0.44321E-07    49   0.516E-03    0.273E-04
RMM:  26    -0.217347841079E+02   -0.13111E-04   -0.26076E-07    47   0.426E-03    0.320E-04
RMM:  27    -0.217347889532E+02   -0.48453E-05   -0.19994E-07    48   0.403E-03    0.318E-04
RMM:  28    -0.217347940219E+02   -0.50687E-05   -0.16922E-07    48   0.322E-03    0.246E-04
RMM:  29    -0.217347991882E+02   -0.51663E-05   -0.80748E-08    40   0.253E-03    0.149E-04
RMM:  30    -0.217348016571E+02   -0.24689E-05   -0.48867E-08    38   0.192E-03    0.105E-04
RMM:  31    -0.217348035027E+02   -0.18456E-05   -0.38210E-08    43   0.190E-03    0.103E-04
RMM:  32    -0.217348047013E+02   -0.11986E-05   -0.31056E-08    41   0.155E-03    0.135E-04
RMM:  33    -0.217348054433E+02   -0.74198E-06   -0.19783E-08    40   0.144E-03
   3 F= -.21754150E+02 E0= -.21754150E+02  d E =-.130004E+01  mag=     1.0000
       N       E                     dE             d eps       ncg     rms          rms(c)
DAV:   1    -0.211528433910E+02    0.58196E+00   -0.30394E+02    96   0.168E+02    0.943E+00
RMM:   2    -0.217824597850E+02   -0.62962E+00   -0.76277E+00    72   0.215E+01    0.360E+00
RMM:   3    -0.220098050112E+02   -0.22735E+00   -0.36147E-01    74   0.544E+00    0.197E+00
RMM:   4    -0.220930787715E+02   -0.83274E-01   -0.79375E-02    74   0.245E+00    0.606E-01
RMM:   5    -0.221264011882E+02   -0.33322E-01   -0.17623E-02    79   0.100E+00    0.289E-01
RMM:   6    -0.221352997837E+02   -0.88986E-02   -0.25950E-03    76   0.373E-01    0.352E-01
RMM:   7    -0.221383158640E+02   -0.30161E-02   -0.13851E-03    75   0.275E-01    0.178E-01
RMM:   8    -0.221459932140E+02   -0.76774E-02   -0.13242E-03    79   0.238E-01    0.502E-02
RMM:   9    -0.221481450626E+02   -0.21518E-02   -0.15740E-04    76   0.881E-02    0.261E-02
RMM:  10    -0.221506555878E+02   -0.25105E-02   -0.16274E-04    81   0.701E-02    0.159E-02
RMM:  11    -0.221529159607E+02   -0.22604E-02   -0.33861E-05    73   0.313E-02    0.772E-03
RMM:  12    -0.221546138551E+02   -0.16979E-02   -0.21481E-05    71   0.177E-02    0.542E-03
RMM:  13    -0.221568373742E+02   -0.22235E-02   -0.27631E-05    69   0.181E-02    0.344E-03
RMM:  14    -0.221580478438E+02   -0.12105E-02   -0.18275E-05    70   0.145E-02    0.249E-03
RMM:  15    -0.221588608265E+02   -0.81298E-03   -0.87696E-06    68   0.113E-02    0.144E-03
RMM:  16    -0.221592867898E+02   -0.42596E-03   -0.36240E-06    64   0.816E-03    0.915E-04
RMM:  17    -0.221594811888E+02   -0.19440E-03   -0.95428E-07    54   0.620E-03    0.788E-04
RMM:  18    -0.221596163941E+02   -0.13521E-03   -0.70111E-07    53   0.601E-03    0.623E-04
RMM:  19    -0.221597114281E+02   -0.95034E-04   -0.64318E-07    53   0.579E-03    0.449E-04
RMM:  20    -0.221597614213E+02   -0.49993E-04   -0.56991E-07    52   0.548E-03    0.340E-04
RMM:  21    -0.221597811798E+02   -0.19759E-04   -0.30414E-07    44   0.481E-03    0.229E-04
RMM:  22    -0.221598017749E+02   -0.20595E-04   -0.19460E-07    44   0.322E-03    0.195E-04
RMM:  23    -0.221598213223E+02   -0.19547E-04   -0.14368E-07    43   0.320E-03    0.174E-04
RMM:  24    -0.221598271895E+02   -0.58672E-05   -0.82360E-08    38   0.240E-03    0.933E-05
RMM:  25    -0.221598318140E+02   -0.46245E-05   -0.49937E-08    38   0.205E-03    0.923E-05
RMM:  26    -0.221598346228E+02   -0.28088E-05   -0.30140E-08    40   0.171E-03    0.489E-05
RMM:  27    -0.221598363558E+02   -0.17329E-05   -0.15921E-08    37   0.136E-03    0.551E-05
RMM:  28    -0.221598374196E+02   -0.10638E-05   -0.65539E-09    32   0.115E-03    0.220E-05
RMM:  29    -0.221598379651E+02   -0.54547E-06   -0.34680E-09    31   0.107E-03
   4 F= -.22177782E+02 E0= -.22177782E+02  d E =-.423632E+00  mag=     1.0000
       N       E                     dE             d eps       ncg     rms          rms(c)
DAV:   1    -0.221598378369E+02   -0.41734E-06   -0.20362E-02    84   0.137E+00    0.802E-02
RMM:   2    -0.221596851313E+02    0.15271E-03   -0.36264E-04    73   0.149E-01    0.319E-02
RMM:   3    -0.221597739738E+02   -0.88843E-04   -0.25426E-05    76   0.464E-02    0.179E-02
RMM:   4    -0.221598406577E+02   -0.66684E-04   -0.40302E-06    61   0.198E-02    0.542E-03
RMM:   5    -0.221598567044E+02   -0.16047E-04   -0.97656E-07    52   0.100E-02    0.633E-03
RMM:   6    -0.221598596619E+02   -0.29575E-05   -0.48808E-07    50   0.894E-03    0.225E-03
RMM:   7    -0.221598657335E+02   -0.60716E-05   -0.24151E-07    48   0.455E-03    0.691E-04
RMM:   8    -0.221598705336E+02   -0.48001E-05   -0.16444E-07    47   0.374E-03    0.385E-04
RMM:   9    -0.221598726644E+02   -0.21308E-05   -0.98957E-08    46   0.282E-03    0.242E-04
RMM:  10    -0.221598753521E+02   -0.26877E-05   -0.67167E-08    40   0.216E-03    0.198E-04
RMM:  11    -0.221598773640E+02   -0.20119E-05   -0.48585E-08    39   0.186E-03    0.102E-04
RMM:  12    -0.221598789692E+02   -0.16052E-05   -0.34821E-08    38   0.166E-03    0.109E-04
RMM:  13    -0.221598800892E+02   -0.11200E-05   -0.23718E-08    37   0.148E-03    0.662E-05
RMM:  14    -0.221598815495E+02   -0.14603E-05   -0.15007E-08    32   0.130E-03    0.415E-05
RMM:  15    -0.221598829531E+02   -0.14035E-05   -0.14243E-08    33   0.128E-03    0.689E-05
RMM:  16    -0.221598836920E+02   -0.73899E-06   -0.10319E-08    33   0.127E-03
   5 F= -.22177816E+02 E0= -.22177816E+02  d E =-.423666E+00  mag=     1.0000
       N       E                     dE             d eps       ncg     rms          rms(c)
DAV:   1    -0.223050959369E+02   -0.14521E+00   -0.30229E+01    72   0.533E+01    0.291E+00
RMM:   2    -0.223362821296E+02   -0.31186E-01   -0.56153E-01    72   0.549E+00    0.112E+00
RMM:   3    -0.223617950081E+02   -0.25513E-01   -0.37552E-02    75   0.150E+00    0.630E-01
RMM:   4    -0.223726947781E+02   -0.10900E-01   -0.75731E-03    75   0.715E-01    0.215E-01
RMM:   5    -0.223749053391E+02   -0.22106E-02   -0.84430E-04    74   0.217E-01    0.796E-02
RMM:   6    -0.223758583999E+02   -0.95306E-03   -0.21032E-04    77   0.945E-02    0.820E-02
RMM:   7    -0.223760736958E+02   -0.21530E-03   -0.83260E-05    75   0.627E-02    0.423E-02
RMM:   8    -0.223766007553E+02   -0.52706E-03   -0.41723E-05    75   0.426E-02    0.907E-03
RMM:   9    -0.223768634608E+02   -0.26271E-03   -0.11934E-05    72   0.203E-02    0.505E-03
RMM:  10    -0.223771020009E+02   -0.23854E-03   -0.54270E-06    63   0.121E-02    0.248E-03
RMM:  11    -0.223772735228E+02   -0.17152E-03   -0.25626E-06    57   0.830E-03    0.173E-03
RMM:  12    -0.223774156688E+02   -0.14215E-03   -0.12157E-06    55   0.743E-03    0.118E-03
RMM:  13    -0.223775855051E+02   -0.16984E-03   -0.22128E-06    58   0.764E-03    0.755E-04
RMM:  14    -0.223777076530E+02   -0.12215E-03   -0.17859E-06    55   0.746E-03    0.599E-04
RMM:  15    -0.223777593552E+02   -0.51702E-04   -0.64171E-07    52   0.624E-03    0.484E-04
RMM:  16    -0.223778185423E+02   -0.59187E-04   -0.66379E-07    52   0.547E-03    0.340E-04
RMM:  17    -0.223778626819E+02   -0.44140E-04   -0.61030E-07    50   0.563E-03    0.246E-04
RMM:  18    -0.223778769657E+02   -0.14284E-04   -0.36531E-07    47   0.487E-03    0.180E-04
RMM:  19    -0.223778885758E+02   -0.11610E-04   -0.24779E-07    43   0.382E-03    0.156E-04
RMM:  20    -0.223778980291E+02   -0.94533E-05   -0.18484E-07    42   0.333E-03    0.977E-05
RMM:  21    -0.223779022050E+02   -0.41758E-05   -0.11568E-07    39   0.281E-03    0.921E-05
RMM:  22    -0.223779039080E+02   -0.17030E-05   -0.66016E-08    38   0.219E-03    0.477E-05
RMM:  23    -0.223779061271E+02   -0.22191E-05   -0.41491E-08    37   0.180E-03    0.567E-05
RMM:  24    -0.223779070310E+02   -0.90390E-06   -0.24700E-08    36   0.157E-03
   6 F= -.22395699E+02 E0= -.22395699E+02  d E =-.217883E+00  mag=     1.0000
       N       E                     dE             d eps       ncg     rms          rms(c)
DAV:   1    -0.223774476786E+02    0.45845E-03   -0.27890E+02    72   0.167E+02    0.101E+01
RMM:   2    -0.229371571955E+02   -0.55971E+00   -0.62763E+00    72   0.184E+01    0.388E+00
RMM:   3    -0.230075983272E+02   -0.70441E-01   -0.38801E-01    73   0.568E+00    0.181E+00
RMM:   4    -0.230707804590E+02   -0.63182E-01   -0.83445E-02    77   0.214E+00    0.614E-01
RMM:   5    -0.230845206675E+02   -0.13740E-01   -0.74935E-03    74   0.567E-01    0.234E-01
RMM:   6    -0.230870047011E+02   -0.24840E-02   -0.95745E-04    75   0.219E-01    0.119E-01
RMM:   7    -0.230904047644E+02   -0.34001E-02   -0.10554E-03    79   0.197E-01    0.758E-02
RMM:   8    -0.230909937852E+02   -0.58902E-03   -0.16022E-04    76   0.101E-01    0.386E-02
RMM:   9    -0.230917948941E+02   -0.80111E-03   -0.50873E-05    75   0.437E-02    0.173E-02
RMM:  10    -0.230929674764E+02   -0.11726E-02   -0.45092E-05    76   0.371E-02    0.918E-03
RMM:  11    -0.230934909138E+02   -0.52344E-03   -0.85531E-06    65   0.147E-02    0.538E-03
RMM:  12    -0.230941878564E+02   -0.69694E-03   -0.10058E-05    70   0.144E-02    0.354E-03
RMM:  13    -0.230948748126E+02   -0.68696E-03   -0.10208E-05    68   0.119E-02    0.212E-03
RMM:  14    -0.230952948458E+02   -0.42003E-03   -0.61829E-06    64   0.991E-03    0.163E-03
RMM:  15    -0.230956675241E+02   -0.37268E-03   -0.64623E-06    64   0.934E-03    0.117E-03
RMM:  16    -0.230958383618E+02   -0.17084E-03   -0.29165E-06    59   0.879E-03    0.813E-04
RMM:  17    -0.230959431829E+02   -0.10482E-03   -0.17189E-06    57   0.685E-03    0.558E-04
RMM:  18    -0.230959983829E+02   -0.55200E-04   -0.99812E-07    54   0.616E-03    0.432E-04
RMM:  19    -0.230960247254E+02   -0.26342E-04   -0.60208E-07    51   0.535E-03    0.402E-04
RMM:  20    -0.230960437792E+02   -0.19054E-04   -0.33209E-07    50   0.403E-03    0.258E-04
RMM:  21    -0.230960649837E+02   -0.21205E-04   -0.28526E-07    49   0.372E-03    0.238E-04
RMM:  22    -0.230960758372E+02   -0.10853E-04   -0.22507E-07    46   0.350E-03    0.156E-04
RMM:  23    -0.230960810935E+02   -0.52563E-05   -0.13352E-07    41   0.288E-03    0.144E-04
RMM:  24    -0.230960855178E+02   -0.44244E-05   -0.89489E-08    40   0.228E-03    0.864E-05
RMM:  25    -0.230960891307E+02   -0.36129E-05   -0.62419E-08    40   0.204E-03    0.938E-05
RMM:  26    -0.230960914826E+02   -0.23519E-05   -0.43916E-08    41   0.174E-03    0.539E-05
RMM:  27    -0.230960923996E+02   -0.91694E-06   -0.26636E-08    39   0.149E-03
   7 F= -.23113563E+02 E0= -.23113563E+02  d E =-.935747E+00  mag=     1.0000
       N       E                     dE             d eps       ncg     rms          rms(c)
DAV:   1    -0.204003650123E+02    0.26957E+01   -0.11536E+03    84   0.345E+02    0.246E+01
RMM:   2    -0.233984196389E+02   -0.29981E+01   -0.32075E+01    73   0.455E+01    0.106E+01
RMM:   3    -0.233835927009E+02    0.14827E-01   -0.20583E+00    73   0.153E+01    0.460E+00
RMM:   4    -0.235540750550E+02   -0.17048E+00   -0.30980E-01    74   0.379E+00    0.151E+00
RMM:   5    -0.235779815582E+02   -0.23907E-01   -0.31337E-02    77   0.142E+00    0.542E-01
RMM:   6    -0.235856751253E+02   -0.76936E-02   -0.64912E-03    76   0.551E-01    0.212E-01
RMM:   7    -0.235902193226E+02   -0.45442E-02   -0.19358E-03    76   0.280E-01    0.869E-02
RMM:   8    -0.235930878111E+02   -0.28685E-02   -0.29353E-04    77   0.116E-01    0.447E-02
RMM:   9    -0.235965070182E+02   -0.34192E-02   -0.18389E-04    74   0.683E-02    0.255E-02
RMM:  10    -0.235998233252E+02   -0.33163E-02   -0.13654E-04    73   0.566E-02    0.130E-02
RMM:  11    -0.236022138475E+02   -0.23905E-02   -0.95617E-05    76   0.343E-02    0.966E-03
RMM:  12    -0.236045334622E+02   -0.23196E-02   -0.10460E-04    73   0.333E-02    0.831E-03
RMM:  13    -0.236058844108E+02   -0.13509E-02   -0.75372E-05    72   0.275E-02    0.430E-03
RMM:  14    -0.236066585366E+02   -0.77413E-03   -0.44048E-05    73   0.218E-02    0.353E-03
RMM:  15    -0.236072547146E+02   -0.59618E-03   -0.35028E-05    70   0.178E-02    0.239E-03
RMM:  16    -0.236074400045E+02   -0.18529E-03   -0.13130E-05    62   0.129E-02    0.131E-03
RMM:  17    -0.236075790795E+02   -0.13908E-03   -0.59036E-06    57   0.920E-03    0.103E-03
RMM:  18    -0.236076790710E+02   -0.99991E-04   -0.38992E-06    57   0.775E-03    0.598E-04
RMM:  19    -0.236077333414E+02   -0.54270E-04   -0.21834E-06    55   0.670E-03    0.503E-04
RMM:  20    -0.236077522784E+02   -0.18937E-04   -0.58572E-07    54   0.558E-03    0.302E-04
RMM:  21    -0.236077766496E+02   -0.24371E-04   -0.50160E-07    51   0.370E-03    0.225E-04
RMM:  22    -0.236077863689E+02   -0.97193E-05   -0.21890E-07    48   0.362E-03    0.222E-04
RMM:  23    -0.236077909070E+02   -0.45381E-05   -0.11700E-07    43   0.253E-03    0.117E-04
RMM:  24    -0.236077970373E+02   -0.61303E-05   -0.82857E-08    43   0.221E-03    0.128E-04
RMM:  25    -0.236078008703E+02   -0.38330E-05   -0.58188E-08    41   0.187E-03    0.851E-05
RMM:  26    -0.236078019574E+02   -0.10871E-05   -0.34523E-08    39   0.168E-03    0.632E-05
RMM:  27    -0.236078029529E+02   -0.99554E-06   -0.19374E-08    36   0.135E-03
   8 F= -.23621074E+02 E0= -.23621074E+02  d E =-.144326E+01  mag=     1.0000
       N       E                     dE             d eps       ncg     rms          rms(c)
DAV:   1    -0.228145906066E+02    0.79321E+00   -0.35477E+02    96   0.184E+02    0.104E+01
RMM:   2    -0.236459601067E+02   -0.83137E+00   -0.12671E+01    75   0.280E+01    0.713E+00
RMM:   3    -0.236324314851E+02    0.13529E-01   -0.61035E-01    75   0.657E+00    0.426E+00
RMM:   4    -0.236557011240E+02   -0.23270E-01   -0.21247E-01    75   0.323E+00    0.137E+00
RMM:   5    -0.236466343267E+02    0.90668E-02   -0.38893E-02    77   0.150E+00    0.340E-01
RMM:   6    -0.236532986194E+02   -0.66643E-02   -0.11876E-02    77   0.686E-01    0.236E-01
RMM:   7    -0.236565071323E+02   -0.32085E-02   -0.13435E-03    73   0.322E-01    0.959E-02
RMM:   8    -0.236587007153E+02   -0.21936E-02   -0.55945E-04    79   0.146E-01    0.545E-02
RMM:   9    -0.236596898115E+02   -0.98910E-03   -0.84832E-05    74   0.654E-02    0.226E-02
RMM:  10    -0.236607539877E+02   -0.10642E-02   -0.50773E-05    76   0.446E-02    0.115E-02
RMM:  11    -0.236616469066E+02   -0.89292E-03   -0.16212E-05    71   0.199E-02    0.748E-03
RMM:  12    -0.236624873531E+02   -0.84045E-03   -0.13710E-05    72   0.151E-02    0.452E-03
RMM:  13    -0.236634262362E+02   -0.93888E-03   -0.20364E-05    70   0.154E-02    0.360E-03
RMM:  14    -0.236639311199E+02   -0.50488E-03   -0.11536E-05    67   0.129E-02    0.232E-03
RMM:  15    -0.236643531811E+02   -0.42206E-03   -0.11501E-05    68   0.118E-02    0.132E-03
RMM:  16    -0.236644993471E+02   -0.14617E-03   -0.40095E-06    59   0.986E-03    0.954E-04
RMM:  17    -0.236645805672E+02   -0.81220E-04   -0.19136E-06    57   0.786E-03    0.720E-04
RMM:  18    -0.236646347241E+02   -0.54157E-04   -0.10819E-06    55   0.634E-03    0.571E-04
RMM:  19    -0.236646722582E+02   -0.37534E-04   -0.86199E-07    53   0.558E-03    0.483E-04
RMM:  20    -0.236646890901E+02   -0.16832E-04   -0.37561E-07    51   0.480E-03    0.334E-04
RMM:  21    -0.236647017652E+02   -0.12675E-04   -0.23159E-07    48   0.373E-03    0.231E-04
RMM:  22    -0.236647170461E+02   -0.15281E-04   -0.20936E-07    47   0.309E-03    0.201E-04
RMM:  23    -0.236647221211E+02   -0.50750E-05   -0.12805E-07    41   0.291E-03    0.129E-04
RMM:  24    -0.236647250049E+02   -0.28838E-05   -0.69662E-08    41   0.208E-03    0.101E-04
RMM:  25    -0.236647301074E+02   -0.51026E-05   -0.43072E-08    38   0.180E-03    0.835E-05
RMM:  26    -0.236647321216E+02   -0.20141E-05   -0.27387E-08    37   0.152E-03    0.478E-05
RMM:  27    -0.236647330551E+02   -0.93354E-06   -0.16608E-08    37   0.138E-03
   9 F= -.23679645E+02 E0= -.23679645E+02  d E =-.150183E+01  mag=     1.0000
       N       E                     dE             d eps       ncg     rms          rms(c)
DAV:   1    -0.236484878858E+02    0.16244E-01   -0.90126E+01    72   0.970E+01    0.671E+00
RMM:   2    -0.237998871131E+02   -0.15140E+00   -0.19908E+00    73   0.979E+00    0.313E+00
RMM:   3    -0.238043219531E+02   -0.44348E-02   -0.11848E-01    73   0.317E+00    0.152E+00
RMM:   4    -0.238219896362E+02   -0.17668E-01   -0.20141E-02    77   0.936E-01    0.356E-01
RMM:   5    -0.238235831998E+02   -0.15936E-02   -0.18104E-03    76   0.343E-01    0.132E-01
RMM:   6    -0.238249153602E+02   -0.13322E-02   -0.54767E-04    77   0.144E-01    0.552E-02
RMM:   7    -0.238258570567E+02   -0.94170E-03   -0.20611E-04    78   0.981E-02    0.271E-02
RMM:   8    -0.238264051452E+02   -0.54809E-03   -0.32802E-05    77   0.302E-02    0.159E-02
RMM:   9    -0.238271265168E+02   -0.72137E-03   -0.23242E-05    76   0.273E-02    0.578E-03
RMM:  10    -0.238273943320E+02   -0.26782E-03   -0.60550E-06    61   0.108E-02    0.393E-03
RMM:  11    -0.238276935305E+02   -0.29920E-03   -0.54673E-06    59   0.105E-02    0.281E-03
RMM:  12    -0.238281510886E+02   -0.45756E-03   -0.11756E-05    68   0.116E-02    0.202E-03
RMM:  13    -0.238284147194E+02   -0.26363E-03   -0.80927E-06    62   0.111E-02    0.151E-03
RMM:  14    -0.238285592284E+02   -0.14451E-03   -0.44906E-06    58   0.838E-03    0.133E-03
RMM:  15    -0.238286787437E+02   -0.11952E-03   -0.42652E-06    59   0.830E-03    0.776E-04
RMM:  16    -0.238287313363E+02   -0.52593E-04   -0.23502E-06    57   0.774E-03    0.547E-04
RMM:  17    -0.238287498144E+02   -0.18478E-04   -0.66964E-07    54   0.554E-03    0.390E-04
RMM:  18    -0.238287681906E+02   -0.18376E-04   -0.54785E-07    54   0.458E-03    0.427E-04
RMM:  19    -0.238287945430E+02   -0.26352E-04   -0.75219E-07    53   0.439E-03    0.176E-04
RMM:  20    -0.238288012390E+02   -0.66960E-05   -0.29795E-07    47   0.391E-03    0.272E-04
RMM:  21    -0.238288035377E+02   -0.22987E-05   -0.15915E-07    44   0.298E-03    0.121E-04
RMM:  22    -0.238288081183E+02   -0.45806E-05   -0.12609E-07    41   0.242E-03    0.170E-04
RMM:  23    -0.238288124560E+02   -0.43377E-05   -0.10108E-07    41   0.228E-03    0.101E-04
RMM:  24    -0.238288136712E+02   -0.12152E-05   -0.66288E-08    40   0.194E-03    0.923E-05
RMM:  25    -0.238288149723E+02   -0.13011E-05   -0.41424E-08    38   0.164E-03    0.748E-05
RMM:  26    -0.238288158459E+02   -0.87361E-06   -0.28082E-08    37   0.143E-03
  10 F= -.23842612E+02 E0= -.23842612E+02  d E =-.166480E+01  mag=     1.0000
       N       E                     dE             d eps       ncg     rms          rms(c)
DAV:   1    -0.240947271057E+02   -0.26591E+00   -0.34136E+01    90   0.602E+01    0.261E+00
RMM:   2    -0.241431254338E+02   -0.48398E-01   -0.79274E-01    74   0.645E+00    0.150E+00
RMM:   3    -0.241495159440E+02   -0.63905E-02   -0.40777E-02    73   0.206E+00    0.888E-01
RMM:   4    -0.241524621077E+02   -0.29462E-02   -0.10439E-02    75   0.604E-01    0.236E-01
RMM:   5    -0.241530170088E+02   -0.55490E-03   -0.13374E-03    74   0.362E-01    0.677E-02
RMM:   6    -0.241532981669E+02   -0.28116E-03   -0.35396E-04    79   0.997E-02    0.383E-02
RMM:   7    -0.241535216317E+02   -0.22346E-03   -0.60752E-05    73   0.715E-02    0.177E-02
RMM:   8    -0.241536843646E+02   -0.16273E-03   -0.21496E-05    77   0.246E-02    0.950E-03
RMM:   9    -0.241537920232E+02   -0.10766E-03   -0.53909E-06    67   0.170E-02    0.384E-03
RMM:  10    -0.241538882293E+02   -0.96206E-04   -0.28229E-06    59   0.944E-03    0.247E-03
RMM:  11    -0.241539513382E+02   -0.63109E-04   -0.86030E-07    54   0.718E-03    0.159E-03
RMM:  12    -0.241540789700E+02   -0.12763E-03   -0.26330E-06    58   0.681E-03    0.149E-03
RMM:  13    -0.241541650621E+02   -0.86092E-04   -0.19897E-06    58   0.633E-03    0.856E-04
RMM:  14    -0.241542029774E+02   -0.37915E-04   -0.73568E-07    54   0.531E-03    0.648E-04
RMM:  15    -0.241542443603E+02   -0.41383E-04   -0.12402E-06    55   0.596E-03    0.707E-04
RMM:  16    -0.241542708266E+02   -0.26466E-04   -0.87043E-07    54   0.579E-03    0.356E-04
RMM:  17    -0.241542814225E+02   -0.10596E-04   -0.58609E-07    53   0.482E-03    0.276E-04
RMM:  18    -0.241542890644E+02   -0.76419E-05   -0.34686E-07    50   0.400E-03    0.286E-04
RMM:  19    -0.241542976322E+02   -0.85678E-05   -0.43483E-07    50   0.353E-03    0.189E-04
RMM:  20    -0.241543024656E+02   -0.48334E-05   -0.25516E-07    44   0.310E-03    0.158E-04
RMM:  21    -0.241543035801E+02   -0.11145E-05   -0.14017E-07    43   0.246E-03    0.122E-04
RMM:  22    -0.241543057172E+02   -0.21371E-05   -0.10975E-07    40   0.233E-03    0.123E-04
RMM:  23    -0.241543071258E+02   -0.14086E-05   -0.80757E-08    39   0.203E-03    0.750E-05
RMM:  24    -0.241543078915E+02   -0.76572E-06   -0.57799E-08    38   0.182E-03
  11 F= -.24167898E+02 E0= -.24167898E+02  d E =-.325286E+00  mag=     1.0000
       N       E                     dE             d eps       ncg     rms          rms(c)
DAV:   1    -0.242176469322E+02   -0.63340E-01   -0.36092E+01    96   0.624E+01    0.245E+00
RMM:   2    -0.242644420272E+02   -0.46795E-01   -0.78295E-01    74   0.658E+00    0.159E+00
RMM:   3    -0.242704132244E+02   -0.59712E-02   -0.37084E-02    73   0.199E+00    0.967E-01
RMM:   4    -0.242724871063E+02   -0.20739E-02   -0.12656E-02    74   0.693E-01    0.216E-01
RMM:   5    -0.242730333634E+02   -0.54626E-03   -0.12792E-03    74   0.379E-01    0.734E-02
RMM:   6    -0.242732407193E+02   -0.20736E-03   -0.46488E-04    80   0.124E-01    0.420E-02
RMM:   7    -0.242734814563E+02   -0.24074E-03   -0.60278E-05    73   0.742E-02    0.182E-02
RMM:   8    -0.242736157319E+02   -0.13428E-03   -0.17690E-05    75   0.221E-02    0.956E-03
RMM:   9    -0.242737125402E+02   -0.96808E-04   -0.44380E-06    66   0.153E-02    0.402E-03
RMM:  10    -0.242738079433E+02   -0.95403E-04   -0.29226E-06    60   0.967E-03    0.244E-03
RMM:  11    -0.242738743745E+02   -0.66431E-04   -0.10046E-06    54   0.790E-03    0.162E-03
RMM:  12    -0.242740102935E+02   -0.13592E-03   -0.34453E-06    58   0.705E-03    0.167E-03
RMM:  13    -0.242740727935E+02   -0.62500E-04   -0.15881E-06    56   0.691E-03    0.771E-04
RMM:  14    -0.242741182962E+02   -0.45503E-04   -0.12153E-06    56   0.539E-03    0.623E-04
RMM:  15    -0.242741623753E+02   -0.44079E-04   -0.17569E-06    57   0.583E-03    0.565E-04
RMM:  16    -0.242741810842E+02   -0.18709E-04   -0.77544E-07    54   0.543E-03    0.358E-04
RMM:  17    -0.242741878323E+02   -0.67481E-05   -0.36286E-07    51   0.431E-03    0.333E-04
RMM:  18    -0.242741952494E+02   -0.74171E-05   -0.30113E-07    50   0.383E-03    0.359E-04
RMM:  19    -0.242742042082E+02   -0.89588E-05   -0.43212E-07    50   0.360E-03    0.182E-04
RMM:  20    -0.242742095071E+02   -0.52988E-05   -0.39600E-07    45   0.285E-03    0.143E-04
RMM:  21    -0.242742116360E+02   -0.21290E-05   -0.14403E-07    44   0.274E-03    0.219E-04
RMM:  22    -0.242742128390E+02   -0.12030E-05   -0.93843E-08    41   0.228E-03    0.599E-05
RMM:  23    -0.242742142487E+02   -0.14097E-05   -0.78102E-08    40   0.193E-03    0.161E-04
RMM:  24    -0.242742151349E+02   -0.88621E-06   -0.54063E-08    38   0.189E-03
  12 F= -.24287713E+02 E0= -.24287713E+02  d E =-.445101E+00  mag=     1.0000
       N       E                     dE             d eps       ncg     rms          rms(c)
DAV:   1    -0.246941340812E+02   -0.41992E+00   -0.15919E+00    96   0.114E+01    0.139E+00
RMM:   2    -0.246958650375E+02   -0.17310E-02   -0.36482E-02    73   0.164E+00    0.837E-01
RMM:   3    -0.246951720247E+02    0.69301E-03   -0.56924E-03    75   0.655E-01    0.159E-01
RMM:   4    -0.246962619293E+02   -0.10899E-02   -0.52028E-04    77   0.190E-01    0.584E-02
RMM:   5    -0.246964740066E+02   -0.21208E-03   -0.12802E-04    77   0.795E-02    0.296E-02
RMM:   6    -0.246965359837E+02   -0.61977E-04   -0.66431E-05    80   0.492E-02    0.193E-02
RMM:   7    -0.246965618874E+02   -0.25904E-04   -0.32620E-06    62   0.191E-02    0.669E-03
RMM:   8    -0.246965925522E+02   -0.30665E-04   -0.56924E-06    69   0.147E-02    0.483E-03
RMM:   9    -0.246966123774E+02   -0.19825E-04   -0.66637E-07    53   0.845E-03    0.170E-03
RMM:  10    -0.246966328149E+02   -0.20438E-04   -0.83274E-07    53   0.612E-03    0.791E-04
RMM:  11    -0.246966498530E+02   -0.17038E-04   -0.74020E-07    52   0.581E-03    0.756E-04
RMM:  12    -0.246966678305E+02   -0.17977E-04   -0.89557E-07    54   0.566E-03    0.546E-04
RMM:  13    -0.246966776286E+02   -0.97982E-05   -0.54978E-07    51   0.507E-03    0.362E-04
RMM:  14    -0.246966844140E+02   -0.67853E-05   -0.40510E-07    47   0.400E-03    0.369E-04
RMM:  15    -0.246966945120E+02   -0.10098E-04   -0.50089E-07    50   0.448E-03    0.252E-04
RMM:  16    -0.246967003315E+02   -0.58195E-05   -0.52693E-07    48   0.471E-03    0.234E-04
RMM:  17    -0.246967025820E+02   -0.22505E-05   -0.27942E-07    44   0.351E-03    0.225E-04
RMM:  18    -0.246967029566E+02   -0.37462E-06   -0.15186E-07    41   0.274E-03
  13 F= -.24710471E+02 E0= -.24710471E+02  d E =-.422758E+00  mag=     1.0000
       N       E                     dE             d eps       ncg     rms          rms(c)
DAV:   1    -0.255963395406E+02   -0.89964E+00   -0.13777E+01    72   0.336E+01    0.396E+00
RMM:   2    -0.256170384702E+02   -0.20699E-01   -0.31499E-01    73   0.489E+00    0.238E+00
RMM:   3    -0.256139599395E+02    0.30785E-02   -0.43929E-02    75   0.185E+00    0.547E-01
RMM:   4    -0.256204312399E+02   -0.64713E-02   -0.46757E-03    80   0.546E-01    0.166E-01
RMM:   5    -0.256212531227E+02   -0.82188E-03   -0.95529E-04    77   0.221E-01    0.819E-02
RMM:   6    -0.256215465296E+02   -0.29341E-03   -0.43667E-04    78   0.126E-01    0.446E-02
RMM:   7    -0.256217034598E+02   -0.15693E-03   -0.31778E-05    77   0.539E-02    0.168E-02
RMM:   8    -0.256218778120E+02   -0.17435E-03   -0.29539E-05    77   0.317E-02    0.967E-03
RMM:   9    -0.256219794736E+02   -0.10166E-03   -0.45512E-06    65   0.159E-02    0.422E-03
RMM:  10    -0.256220859740E+02   -0.10650E-03   -0.49807E-06    64   0.980E-03    0.206E-03
RMM:  11    -0.256221840662E+02   -0.98092E-04   -0.36379E-06    63   0.850E-03    0.216E-03
RMM:  12    -0.256222684320E+02   -0.84366E-04   -0.28880E-06    60   0.695E-03    0.110E-03
RMM:  13    -0.256223243512E+02   -0.55919E-04   -0.19453E-06    57   0.661E-03    0.770E-04
RMM:  14    -0.256223932125E+02   -0.68861E-04   -0.49162E-06    63   0.760E-03    0.877E-04
RMM:  15    -0.256224068927E+02   -0.13680E-04   -0.75371E-07    53   0.618E-03    0.502E-04
RMM:  16    -0.256224116353E+02   -0.47425E-05   -0.33663E-07    49   0.437E-03    0.304E-04
RMM:  17    -0.256224216151E+02   -0.99799E-05   -0.30819E-07    50   0.392E-03    0.300E-04
RMM:  18    -0.256224320366E+02   -0.10421E-04   -0.33984E-07    48   0.383E-03    0.278E-04
RMM:  19    -0.256224351349E+02   -0.30983E-05   -0.21140E-07    44   0.360E-03    0.136E-04
RMM:  20    -0.256224375792E+02   -0.24443E-05   -0.13085E-07    41   0.259E-03    0.153E-04
RMM:  21    -0.256224400980E+02   -0.25188E-05   -0.90517E-08    39   0.229E-03    0.647E-05
RMM:  22    -0.256224407337E+02   -0.63572E-06   -0.56072E-08    39   0.194E-03
  14 F= -.25637128E+02 E0= -.25637128E+02  d E =-.134942E+01  mag=     1.0000
       N       E                     dE             d eps       ncg     rms          rms(c)
DAV:   1    -0.262187174354E+02   -0.59628E+00   -0.50980E+01    72   0.643E+01    0.720E+00
RMM:   2    -0.263081616185E+02   -0.89444E-01   -0.11669E+00    73   0.935E+00    0.414E+00
RMM:   3    -0.263044402339E+02    0.37214E-02   -0.12895E-01    74   0.337E+00    0.126E+00
RMM:   4    -0.263217864857E+02   -0.17346E-01   -0.23587E-02    81   0.102E+00    0.321E-01
RMM:   5    -0.263241080895E+02   -0.23216E-02   -0.24194E-03    75   0.371E-01    0.147E-01
RMM:   6    -0.263250151909E+02   -0.90710E-03   -0.13033E-03    80   0.208E-01    0.702E-02
RMM:   7    -0.263255777728E+02   -0.56258E-03   -0.12281E-04    78   0.888E-02    0.276E-02
RMM:   8    -0.263261122209E+02   -0.53445E-03   -0.77947E-05    77   0.535E-02    0.128E-02
RMM:   9    -0.263263919197E+02   -0.27970E-03   -0.14686E-05    72   0.275E-02    0.695E-03
RMM:  10    -0.263266201432E+02   -0.22822E-03   -0.84391E-06    68   0.126E-02    0.424E-03
RMM:  11    -0.263270351874E+02   -0.41504E-03   -0.18625E-05    69   0.153E-02    0.299E-03
RMM:  12    -0.263271965900E+02   -0.16140E-03   -0.56585E-06    67   0.110E-02    0.225E-03
RMM:  13    -0.263274295600E+02   -0.23297E-03   -0.81227E-06    66   0.104E-02    0.182E-03
RMM:  14    -0.263275774652E+02   -0.14791E-03   -0.77757E-06    66   0.107E-02    0.118E-03
RMM:  15    -0.263276194195E+02   -0.41954E-04   -0.17198E-06    57   0.759E-03    0.837E-04
RMM:  16    -0.263276418652E+02   -0.22446E-04   -0.81129E-07    53   0.582E-03    0.530E-04
RMM:  17    -0.263276759935E+02   -0.34128E-04   -0.73204E-07    54   0.523E-03    0.559E-04
RMM:  18    -0.263276967554E+02   -0.20762E-04   -0.56813E-07    50   0.526E-03    0.319E-04
RMM:  19    -0.263277037085E+02   -0.69531E-05   -0.30713E-07    47   0.454E-03    0.276E-04
RMM:  20    -0.263277083755E+02   -0.46670E-05   -0.21609E-07    46   0.330E-03    0.188E-04
RMM:  21    -0.263277134045E+02   -0.50290E-05   -0.14652E-07    43   0.306E-03    0.187E-04
RMM:  22    -0.263277157055E+02   -0.23011E-05   -0.81710E-08    39   0.231E-03    0.785E-05
RMM:  23    -0.263277176663E+02   -0.19608E-05   -0.46911E-08    38   0.191E-03    0.109E-04
RMM:  24    -0.263277195645E+02   -0.18982E-05   -0.27233E-08    37   0.161E-03    0.419E-05
RMM:  25    -0.263277202933E+02   -0.72880E-06   -0.17302E-08    37   0.142E-03
  15 F= -.26344502E+02 E0= -.26344502E+02  d E =-.205679E+01  mag=     1.0000
       N       E                     dE             d eps       ncg     rms          rms(c)
DAV:   1    -0.265583866361E+02   -0.23067E+00   -0.44512E+00    96   0.199E+01    0.132E+00
RMM:   2    -0.265647329709E+02   -0.63463E-02   -0.14897E-01    73   0.283E+00    0.554E-01
RMM:   3    -0.265638819587E+02    0.85101E-03   -0.12365E-02    74   0.970E-01    0.294E-01
RMM:   4    -0.265656961927E+02   -0.18142E-02   -0.25922E-03    77   0.284E-01    0.125E-01
RMM:   5    -0.265684115292E+02   -0.27153E-02   -0.55642E-04    76   0.141E-01    0.490E-02
RMM:   6    -0.265698658996E+02   -0.14544E-02   -0.11147E-04    80   0.593E-02    0.223E-02
RMM:   7    -0.265705968925E+02   -0.73099E-03   -0.24601E-05    72   0.231E-02    0.884E-03
RMM:   8    -0.265711949453E+02   -0.59805E-03   -0.97857E-06    68   0.162E-02    0.486E-03
RMM:   9    -0.265716808612E+02   -0.48592E-03   -0.71773E-06    63   0.126E-02    0.336E-03
RMM:  10    -0.265720789898E+02   -0.39813E-03   -0.65389E-06    60   0.105E-02    0.246E-03
RMM:  11    -0.265725576398E+02   -0.47865E-03   -0.12474E-05    66   0.118E-02    0.140E-03
RMM:  12    -0.265728228229E+02   -0.26518E-03   -0.79537E-06    62   0.111E-02    0.126E-03
RMM:  13    -0.265728809912E+02   -0.58168E-04   -0.16081E-06    55   0.759E-03    0.848E-04
RMM:  14    -0.265729960263E+02   -0.11504E-03   -0.27080E-06    58   0.702E-03    0.636E-04
RMM:  15    -0.265730521245E+02   -0.56098E-04   -0.16369E-06    56   0.714E-03    0.403E-04
RMM:  16    -0.265730762625E+02   -0.24138E-04   -0.65442E-07    53   0.529E-03    0.420E-04
RMM:  17    -0.265730897906E+02   -0.13528E-04   -0.33559E-07    49   0.437E-03    0.310E-04
RMM:  18    -0.265731062777E+02   -0.16487E-04   -0.34563E-07    47   0.369E-03    0.182E-04
RMM:  19    -0.265731115885E+02   -0.53108E-05   -0.19222E-07    47   0.376E-03    0.247E-04
RMM:  20    -0.265731160793E+02   -0.44908E-05   -0.11496E-07    43   0.228E-03    0.115E-04
RMM:  21    -0.265731205329E+02   -0.44536E-05   -0.72234E-08    39   0.227E-03    0.862E-05
RMM:  22    -0.265731218526E+02   -0.13197E-05   -0.46708E-08    38   0.162E-03    0.643E-05
RMM:  23    -0.265731233742E+02   -0.15216E-05   -0.27580E-08    37   0.163E-03    0.633E-05
RMM:  24    -0.265731241153E+02   -0.74106E-06   -0.12704E-08    33   0.122E-03
  16 F= -.26590098E+02 E0= -.26590098E+02  d E =-.245596E+00  mag=     1.0000
       N       E                     dE             d eps       ncg     rms          rms(c)
DAV:   1    -0.270005021483E+02   -0.42738E+00   -0.41055E+01    96   0.615E+01    0.376E+00
RMM:   2    -0.270862770232E+02   -0.85775E-01   -0.13461E+00    73   0.877E+00    0.143E+00
RMM:   3    -0.270860748673E+02    0.20216E-03   -0.10495E-01    74   0.295E+00    0.733E-01
RMM:   4    -0.270988327598E+02   -0.12758E-01   -0.22819E-02    79   0.840E-01    0.400E-01
RMM:   5    -0.271158526959E+02   -0.17020E-01   -0.39537E-03    75   0.396E-01    0.175E-01
RMM:   6    -0.271220263134E+02   -0.61736E-02   -0.61345E-04    76   0.156E-01    0.666E-02
RMM:   7    -0.271259681322E+02   -0.39418E-02   -0.18375E-04    78   0.725E-02    0.260E-02
RMM:   8    -0.271282971887E+02   -0.23291E-02   -0.63747E-05    76   0.401E-02    0.159E-02
RMM:   9    -0.271316211803E+02   -0.33240E-02   -0.98708E-05    75   0.359E-02    0.104E-02
RMM:  10    -0.271334461816E+02   -0.18250E-02   -0.51889E-05    70   0.301E-02    0.756E-03
RMM:  11    -0.271357973865E+02   -0.23512E-02   -0.11206E-04    71   0.313E-02    0.444E-03
RMM:  12    -0.271367313834E+02   -0.93400E-03   -0.47490E-05    73   0.247E-02    0.310E-03
RMM:  13    -0.271371822381E+02   -0.45085E-03   -0.18832E-05    68   0.134E-02    0.212E-03
RMM:  14    -0.271375607086E+02   -0.37847E-03   -0.13440E-05    64   0.121E-02    0.143E-03
RMM:  15    -0.271377309091E+02   -0.17020E-03   -0.69588E-06    60   0.102E-02    0.894E-04
RMM:  16    -0.271378080227E+02   -0.77114E-04   -0.21194E-06    56   0.757E-03    0.661E-04
RMM:  17    -0.271378809243E+02   -0.72902E-04   -0.14402E-06    55   0.591E-03    0.505E-04
RMM:  18    -0.271379101165E+02   -0.29192E-04   -0.62518E-07    54   0.498E-03    0.293E-04
RMM:  19    -0.271379276678E+02   -0.17551E-04   -0.29342E-07    52   0.388E-03    0.260E-04
RMM:  20    -0.271379473039E+02   -0.19636E-04   -0.14207E-07    47   0.289E-03    0.214E-04
RMM:  21    -0.271379594211E+02   -0.12117E-04   -0.11275E-07    43   0.213E-03    0.101E-04
RMM:  22    -0.271379649416E+02   -0.55205E-05   -0.60796E-08    42   0.206E-03    0.999E-05
RMM:  23    -0.271379677987E+02   -0.28570E-05   -0.27801E-08    38   0.145E-03    0.534E-05
RMM:  24    -0.271379706825E+02   -0.28838E-05   -0.15894E-08    38   0.131E-03    0.462E-05
RMM:  25    -0.271379719038E+02   -0.12213E-05   -0.67873E-09    34   0.107E-03    0.236E-05
RMM:  26    -0.271379726344E+02   -0.73064E-06   -0.29442E-09    32   0.104E-03
  17 F= -.27155356E+02 E0= -.27155356E+02  d E =-.810854E+00  mag=     1.0000
       N       E                     dE             d eps       ncg     rms          rms(c)
DAV:   1    -0.265400733034E+02    0.59790E+00   -0.17156E+02    96   0.132E+02    0.580E+00
RMM:   2    -0.268882538386E+02   -0.34818E+00   -0.46266E+00    72   0.183E+01    0.250E+00
RMM:   3    -0.268963870520E+02   -0.81332E-02   -0.38456E-01    74   0.564E+00    0.161E+00
RMM:   4    -0.269219588947E+02   -0.25572E-01   -0.68365E-02    78   0.185E+00    0.105E+00
RMM:   5    -0.269438596042E+02   -0.21901E-01   -0.94833E-03    73   0.806E-01    0.446E-01
RMM:   6    -0.269544002616E+02   -0.10541E-01   -0.29866E-03    74   0.420E-01    0.130E-01
RMM:   7    -0.269603238458E+02   -0.59236E-02   -0.64086E-04    76   0.195E-01    0.574E-02
RMM:   8    -0.269655777290E+02   -0.52539E-02   -0.27805E-04    74   0.765E-02    0.348E-02
RMM:   9    -0.269714486706E+02   -0.58709E-02   -0.24540E-04    73   0.671E-02    0.186E-02
RMM:  10    -0.269748645883E+02   -0.34159E-02   -0.20874E-04    73   0.485E-02    0.129E-02
RMM:  11    -0.269785507789E+02   -0.36862E-02   -0.21619E-04    72   0.475E-02    0.806E-03
RMM:  12    -0.269811444572E+02   -0.25937E-02   -0.26804E-04    73   0.441E-02    0.573E-03
RMM:  13    -0.269819548847E+02   -0.81043E-03   -0.77748E-05    72   0.324E-02    0.382E-03
RMM:  14    -0.269824592137E+02   -0.50433E-03   -0.39651E-05    71   0.180E-02    0.256E-03
RMM:  15    -0.269827288065E+02   -0.26959E-03   -0.16007E-05    61   0.152E-02    0.171E-03
RMM:  16    -0.269829014906E+02   -0.17268E-03   -0.52022E-06    57   0.101E-02    0.111E-03
RMM:  17    -0.269830504786E+02   -0.14899E-03   -0.39332E-06    58   0.720E-03    0.737E-04
RMM:  18    -0.269831016391E+02   -0.51160E-04   -0.13465E-06    55   0.617E-03    0.560E-04
RMM:  19    -0.269831316067E+02   -0.29968E-04   -0.54012E-07    54   0.460E-03    0.336E-04
RMM:  20    -0.269831539186E+02   -0.22312E-04   -0.23267E-07    53   0.331E-03    0.249E-04
RMM:  21    -0.269831643079E+02   -0.10389E-04   -0.13847E-07    51   0.280E-03    0.191E-04
RMM:  22    -0.269831789150E+02   -0.14607E-04   -0.10132E-07    43   0.208E-03    0.137E-04
RMM:  23    -0.269831847033E+02   -0.57883E-05   -0.69358E-08    42   0.192E-03    0.967E-05
RMM:  24    -0.269831870573E+02   -0.23540E-05   -0.31832E-08    42   0.167E-03    0.751E-05
RMM:  25    -0.269831884223E+02   -0.13650E-05   -0.15984E-08    38   0.128E-03    0.459E-05
RMM:  26    -0.269831895541E+02   -0.11318E-05   -0.91766E-09    37   0.117E-03    0.503E-05
RMM:  27    -0.269831899441E+02   -0.38992E-06   -0.31645E-09    34   0.105E-03
  18 F= -.27005213E+02 E0= -.27005213E+02  d E =-.660711E+00  mag=     1.0000
       N       E                     dE             d eps       ncg     rms          rms(c)
DAV:   1    -0.271716238899E+02   -0.18843E+00   -0.70165E+01    78   0.809E+01    0.254E+00
RMM:   2    -0.272700133870E+02   -0.98389E-01   -0.19052E+00    73   0.117E+01    0.168E+00
RMM:   3    -0.273016824944E+02   -0.31669E-01   -0.16025E-01    77   0.363E+00    0.118E+00
RMM:   4    -0.273113708517E+02   -0.96884E-02   -0.30648E-02    77   0.114E+00    0.719E-01
RMM:   5    -0.273194299618E+02   -0.80591E-02   -0.45281E-03    74   0.618E-01    0.230E-01
RMM:   6    -0.273251071436E+02   -0.56772E-02   -0.15627E-03    74   0.302E-01    0.944E-02
RMM:   7    -0.273289502208E+02   -0.38431E-02   -0.41343E-04    76   0.147E-01    0.405E-02
RMM:   8    -0.273309021425E+02   -0.19519E-02   -0.80215E-05    78   0.549E-02    0.236E-02
RMM:   9    -0.273329667234E+02   -0.20646E-02   -0.45220E-05    73   0.353E-02    0.133E-02
RMM:  10    -0.273345855927E+02   -0.16189E-02   -0.44097E-05    74   0.336E-02    0.941E-03
RMM:  11    -0.273363598145E+02   -0.17742E-02   -0.67159E-05    72   0.343E-02    0.628E-03
RMM:  12    -0.273375958644E+02   -0.12360E-02   -0.70814E-05    73   0.294E-02    0.478E-03
RMM:  13    -0.273380806553E+02   -0.48479E-03   -0.37649E-05    71   0.241E-02    0.329E-03
RMM:  14    -0.273382664969E+02   -0.18584E-03   -0.88258E-06    64   0.150E-02    0.176E-03
RMM:  15    -0.273384436843E+02   -0.17719E-03   -0.65985E-06    61   0.120E-02    0.147E-03
RMM:  16    -0.273385051449E+02   -0.61461E-04   -0.19204E-06    56   0.873E-03    0.110E-03
RMM:  17    -0.273385762165E+02   -0.71072E-04   -0.13513E-06    55   0.674E-03    0.608E-04
RMM:  18    -0.273386060045E+02   -0.29788E-04   -0.89592E-07    54   0.577E-03    0.369E-04
RMM:  19    -0.273386219169E+02   -0.15912E-04   -0.38652E-07    53   0.464E-03    0.309E-04
RMM:  20    -0.273386389210E+02   -0.17004E-04   -0.23292E-07    52   0.320E-03    0.216E-04
RMM:  21    -0.273386500259E+02   -0.11105E-04   -0.13725E-07    48   0.241E-03    0.137E-04
RMM:  22    -0.273386550232E+02   -0.49973E-05   -0.71875E-08    41   0.199E-03    0.115E-04
RMM:  23    -0.273386600640E+02   -0.50408E-05   -0.39448E-08    40   0.156E-03    0.681E-05
RMM:  24    -0.273386634192E+02   -0.33552E-05   -0.24576E-08    39   0.139E-03    0.520E-05
RMM:  25    -0.273386643044E+02   -0.88517E-06   -0.15024E-08    37   0.125E-03
  19 F= -.27356489E+02 E0= -.27356489E+02  d E =-.101199E+01  mag=     1.0000
       N       E                     dE             d eps       ncg     rms          rms(c)
DAV:   1    -0.273456328547E+02   -0.69694E-02   -0.26962E+00    96   0.158E+01    0.658E-01
RMM:   2    -0.273491968152E+02   -0.35640E-02   -0.68574E-02    72   0.222E+00    0.312E-01
RMM:   3    -0.273489838156E+02    0.21300E-03   -0.73633E-03    75   0.765E-01    0.209E-01
RMM:   4    -0.273497537617E+02   -0.76995E-03   -0.11383E-03    76   0.214E-01    0.121E-01
RMM:   5    -0.273504186489E+02   -0.66489E-03   -0.22554E-04    74   0.114E-01    0.548E-02
RMM:   6    -0.273508625890E+02   -0.44394E-03   -0.54349E-05    76   0.468E-02    0.216E-02
RMM:   7    -0.273510967380E+02   -0.23415E-03   -0.13676E-05    70   0.264E-02    0.747E-03
RMM:   8    -0.273513169285E+02   -0.22019E-03   -0.50765E-06    58   0.111E-02    0.402E-03
RMM:   9    -0.273515767578E+02   -0.25983E-03   -0.41836E-06    59   0.101E-02    0.275E-03
RMM:  10    -0.273517857592E+02   -0.20900E-03   -0.46049E-06    60   0.103E-02    0.201E-03
RMM:  11    -0.273520372961E+02   -0.25154E-03   -0.81716E-06    63   0.102E-02    0.117E-03
RMM:  12    -0.273521891322E+02   -0.15184E-03   -0.57536E-06    61   0.971E-03    0.887E-04
RMM:  13    -0.273522632644E+02   -0.74132E-04   -0.30152E-06    58   0.795E-03    0.751E-04
RMM:  14    -0.273522986970E+02   -0.35433E-04   -0.15905E-06    56   0.676E-03    0.520E-04
RMM:  15    -0.273523250403E+02   -0.26343E-04   -0.93466E-07    54   0.566E-03    0.443E-04
RMM:  16    -0.273523381966E+02   -0.13156E-04   -0.58641E-07    53   0.502E-03    0.221E-04
RMM:  17    -0.273523523623E+02   -0.14166E-04   -0.50971E-07    50   0.388E-03    0.207E-04
RMM:  18    -0.273523612658E+02   -0.89034E-05   -0.36099E-07    48   0.348E-03    0.130E-04
RMM:  19    -0.273523647825E+02   -0.35168E-05   -0.15519E-07    45   0.267E-03    0.130E-04
RMM:  20    -0.273523657086E+02   -0.92606E-06   -0.74141E-08    42   0.233E-03
  20 F= -.27370508E+02 E0= -.27370508E+02  d E =-.102601E+01  mag=     1.0000
       N       E                     dE             d eps       ncg     rms          rms(c)
DAV:   1    -0.273941021220E+02   -0.41737E-01   -0.17449E+00    72   0.132E+01    0.605E-01
RMM:   2    -0.273963692007E+02   -0.22671E-02   -0.32839E-02    72   0.139E+00    0.272E-01
RMM:   3    -0.273967598545E+02   -0.39065E-03   -0.15990E-03    72   0.403E-01    0.146E-01
RMM:   4    -0.273972332401E+02   -0.47339E-03   -0.36344E-04    72   0.153E-01    0.549E-02
RMM:   5    -0.273975632956E+02   -0.33006E-03   -0.83405E-05    75   0.800E-02    0.170E-02
RMM:   6    -0.273976311480E+02   -0.67852E-04   -0.10660E-05    72   0.208E-02    0.106E-02
RMM:   7    -0.273977166712E+02   -0.85523E-04   -0.11231E-05    77   0.240E-02    0.530E-03
RMM:   8    -0.273977389221E+02   -0.22251E-04   -0.76394E-07    53   0.738E-03    0.311E-03
RMM:   9    -0.273977661817E+02   -0.27260E-04   -0.11696E-06    55   0.782E-03    0.175E-03
RMM:  10    -0.273977991394E+02   -0.32958E-04   -0.10701E-06    55   0.602E-03    0.111E-03
RMM:  11    -0.273978203291E+02   -0.21190E-04   -0.64169E-07    53   0.522E-03    0.848E-04
RMM:  12    -0.273978416797E+02   -0.21351E-04   -0.90873E-07    55   0.597E-03    0.794E-04
RMM:  13    -0.273978679870E+02   -0.26307E-04   -0.17030E-06    58   0.634E-03    0.418E-04
RMM:  14    -0.273978809129E+02   -0.12926E-04   -0.92563E-07    51   0.579E-03    0.404E-04
RMM:  15    -0.273978840065E+02   -0.30936E-05   -0.38434E-07    48   0.518E-03    0.288E-04
RMM:  16    -0.273978889807E+02   -0.49742E-05   -0.33267E-07    48   0.394E-03    0.267E-04
RMM:  17    -0.273978934937E+02   -0.45131E-05   -0.27414E-07    47   0.403E-03    0.172E-04
RMM:  18    -0.273978966789E+02   -0.31851E-05   -0.21477E-07    47   0.330E-03    0.153E-04
RMM:  19    -0.273978986102E+02   -0.19313E-05   -0.14019E-07    45   0.303E-03    0.135E-04
RMM:  20    -0.273979000913E+02   -0.14811E-05   -0.10729E-07    43   0.234E-03    0.862E-05
RMM:  21    -0.273979005927E+02   -0.50141E-06   -0.64126E-08    41   0.223E-03
  21 F= -.27416128E+02 E0= -.27416128E+02  d E =-.456194E-01  mag=     1.0000
       N       E                     dE             d eps       ncg     rms          rms(c)
DAV:   1    -0.274275070582E+02   -0.29607E-01   -0.15658E+01    72   0.394E+01    0.166E+00
RMM:   2    -0.274530021158E+02   -0.25495E-01   -0.29344E-01    72   0.415E+00    0.722E-01
RMM:   3    -0.274557890406E+02   -0.27869E-02   -0.14261E-02    72   0.121E+00    0.408E-01
RMM:   4    -0.274582335940E+02   -0.24446E-02   -0.30082E-03    72   0.435E-01    0.163E-01
RMM:   5    -0.274596747105E+02   -0.14411E-02   -0.74859E-04    75   0.257E-01    0.504E-02
RMM:   6    -0.274600940446E+02   -0.41933E-03   -0.98347E-05    80   0.606E-02    0.326E-02
RMM:   7    -0.274605277074E+02   -0.43366E-03   -0.69729E-05    75   0.620E-02    0.141E-02
RMM:   8    -0.274606785124E+02   -0.15081E-03   -0.11768E-05    74   0.210E-02    0.904E-03
RMM:   9    -0.274607813625E+02   -0.10285E-03   -0.50489E-06    66   0.175E-02    0.474E-03
RMM:  10    -0.274609825649E+02   -0.20120E-03   -0.94219E-06    70   0.161E-02    0.398E-03
RMM:  11    -0.274610821294E+02   -0.99565E-04   -0.34155E-06    60   0.963E-03    0.208E-03
RMM:  12    -0.274612015824E+02   -0.11945E-03   -0.52893E-06    64   0.938E-03    0.249E-03
RMM:  13    -0.274613143319E+02   -0.11275E-03   -0.64807E-06    67   0.129E-02    0.115E-03
RMM:  14    -0.274613669667E+02   -0.52635E-04   -0.37974E-06    60   0.900E-03    0.787E-04
RMM:  15    -0.274613869796E+02   -0.20013E-04   -0.13988E-06    56   0.754E-03    0.591E-04
RMM:  16    -0.274614006197E+02   -0.13640E-04   -0.64148E-07    52   0.548E-03    0.457E-04
RMM:  17    -0.274614168384E+02   -0.16219E-04   -0.60077E-07    51   0.538E-03    0.453E-04
RMM:  18    -0.274614240874E+02   -0.72491E-05   -0.31784E-07    48   0.421E-03    0.289E-04
RMM:  19    -0.274614318433E+02   -0.77559E-05   -0.26407E-07    47   0.357E-03    0.269E-04
RMM:  20    -0.274614362147E+02   -0.43714E-05   -0.20382E-07    47   0.336E-03    0.143E-04
RMM:  21    -0.274614390061E+02   -0.27914E-05   -0.12985E-07    47   0.281E-03    0.179E-04
RMM:  22    -0.274614405961E+02   -0.15900E-05   -0.77419E-08    42   0.209E-03    0.837E-05
RMM:  23    -0.274614415287E+02   -0.93267E-06   -0.42659E-08    41   0.181E-03
  22 F= -.27480101E+02 E0= -.27480101E+02  d E =-.109593E+00  mag=     1.0000
       N       E                     dE             d eps       ncg     rms          rms(c)
DAV:   1    -0.274898773134E+02   -0.28437E-01   -0.23707E+00    78   0.154E+01    0.621E-01
RMM:   2    -0.274941102203E+02   -0.42329E-02   -0.51168E-02    72   0.195E+00    0.270E-01
RMM:   3    -0.274947093719E+02   -0.59915E-03   -0.49471E-03    75   0.805E-01    0.160E-01
RMM:   4    -0.274951428177E+02   -0.43345E-03   -0.12616E-03    84   0.205E-01    0.923E-02
RMM:   5    -0.274956286492E+02   -0.48583E-03   -0.13131E-04    74   0.920E-02    0.340E-02
RMM:   6    -0.274958824328E+02   -0.25378E-03   -0.27926E-05    77   0.402E-02    0.109E-02
RMM:   7    -0.274960503949E+02   -0.16796E-03   -0.45940E-06    62   0.135E-02    0.552E-03
RMM:   8    -0.274962013877E+02   -0.15099E-03   -0.31888E-06    58   0.118E-02    0.295E-03
RMM:   9    -0.274963413168E+02   -0.13993E-03   -0.35633E-06    60   0.980E-03    0.166E-03
RMM:  10    -0.274964397047E+02   -0.98388E-04   -0.21656E-06    58   0.803E-03    0.115E-03
RMM:  11    -0.274965390189E+02   -0.99314E-04   -0.26859E-06    59   0.769E-03    0.780E-04
RMM:  12    -0.274966277592E+02   -0.88740E-04   -0.33064E-06    60   0.759E-03    0.595E-04
RMM:  13    -0.274966576929E+02   -0.29934E-04   -0.86721E-07    54   0.657E-03    0.463E-04
RMM:  14    -0.274966866452E+02   -0.28952E-04   -0.10165E-06    53   0.523E-03    0.509E-04
RMM:  15    -0.274967011440E+02   -0.14499E-04   -0.74351E-07    49   0.549E-03    0.246E-04
RMM:  16    -0.274967081256E+02   -0.69816E-05   -0.37776E-07    48   0.450E-03    0.286E-04
RMM:  17    -0.274967146617E+02   -0.65360E-05   -0.29079E-07    47   0.368E-03    0.173E-04
RMM:  18    -0.274967187281E+02   -0.40664E-05   -0.20719E-07    46   0.344E-03    0.184E-04
RMM:  19    -0.274967225956E+02   -0.38675E-05   -0.16737E-07    44   0.265E-03    0.920E-05
RMM:  20    -0.274967243663E+02   -0.17707E-05   -0.11069E-07    42   0.260E-03    0.124E-04
RMM:  21    -0.274967250613E+02   -0.69506E-06   -0.65109E-08    41   0.193E-03
  23 F= -.27515625E+02 E0= -.27515625E+02  d E =-.355237E-01  mag=     1.0000
       N       E                     dE             d eps       ncg     rms          rms(c)
DAV:   1    -0.275012320541E+02   -0.45077E-02   -0.16643E+00    84   0.129E+01    0.509E-01
RMM:   2    -0.275041209064E+02   -0.28889E-02   -0.35990E-02    72   0.164E+00    0.228E-01
RMM:   3    -0.275045846386E+02   -0.46373E-03   -0.34638E-03    75   0.675E-01    0.137E-01
RMM:   4    -0.275048468503E+02   -0.26221E-03   -0.86881E-04    83   0.172E-01    0.786E-02
RMM:   5    -0.275051879929E+02   -0.34114E-03   -0.96279E-05    74   0.794E-02    0.281E-02
RMM:   6    -0.275053680371E+02   -0.18004E-03   -0.19319E-05    77   0.341E-02    0.917E-03
RMM:   7    -0.275055013740E+02   -0.13334E-03   -0.35732E-06    60   0.119E-02    0.469E-03
RMM:   8    -0.275056195027E+02   -0.11813E-03   -0.26289E-06    58   0.105E-02    0.249E-03
RMM:   9    -0.275057189599E+02   -0.99457E-04   -0.24020E-06    58   0.872E-03    0.145E-03
RMM:  10    -0.275057948815E+02   -0.75922E-04   -0.16912E-06    55   0.756E-03    0.106E-03
RMM:  11    -0.275058805607E+02   -0.85679E-04   -0.31184E-06    59   0.801E-03    0.685E-04
RMM:  12    -0.275059297369E+02   -0.49176E-04   -0.18424E-06    57   0.696E-03    0.574E-04
RMM:  13    -0.275059626190E+02   -0.32882E-04   -0.12753E-06    55   0.583E-03    0.381E-04
RMM:  14    -0.275059834826E+02   -0.20864E-04   -0.96004E-07    51   0.575E-03    0.366E-04
RMM:  15    -0.275059968562E+02   -0.13374E-04   -0.74986E-07    49   0.547E-03    0.283E-04
RMM:  16    -0.275060002510E+02   -0.33948E-05   -0.31558E-07    48   0.447E-03    0.201E-04
RMM:  17    -0.275060048071E+02   -0.45561E-05   -0.22197E-07    47   0.338E-03    0.177E-04
RMM:  18    -0.275060097018E+02   -0.48947E-05   -0.21049E-07    47   0.307E-03    0.113E-04
RMM:  19    -0.275060131318E+02   -0.34299E-05   -0.16098E-07    44   0.282E-03    0.120E-04
RMM:  20    -0.275060137401E+02   -0.60836E-06   -0.94031E-08    41   0.241E-03
  24 F= -.27525155E+02 E0= -.27525155E+02  d E =-.450531E-01  mag=     1.0000
       N       E                     dE             d eps       ncg     rms          rms(c)
DAV:   1    -0.275242524175E+02   -0.18239E-01   -0.26828E+00    72   0.160E+01    0.665E-01
RMM:   2    -0.275289069750E+02   -0.46546E-02   -0.59404E-02    72   0.190E+00    0.329E-01
RMM:   3    -0.275302651196E+02   -0.13581E-02   -0.51760E-03    73   0.779E-01    0.180E-01
RMM:   4    -0.275305535277E+02   -0.28841E-03   -0.11910E-03    76   0.198E-01    0.667E-02
RMM:   5    -0.275310668142E+02   -0.51329E-03   -0.13376E-04    75   0.115E-01    0.265E-02
RMM:   6    -0.275313042132E+02   -0.23740E-03   -0.30453E-05    81   0.355E-02    0.149E-02
RMM:   7    -0.275315518985E+02   -0.24769E-03   -0.11108E-05    71   0.189E-02    0.426E-03
RMM:   8    -0.275316425042E+02   -0.90606E-04   -0.26557E-06    59   0.111E-02    0.264E-03
RMM:   9    -0.275317349313E+02   -0.92427E-04   -0.24677E-06    58   0.852E-03    0.188E-03
RMM:  10    -0.275318540472E+02   -0.11912E-03   -0.48050E-06    62   0.989E-03    0.123E-03
RMM:  11    -0.275319359348E+02   -0.81888E-04   -0.46557E-06    62   0.945E-03    0.858E-04
RMM:  12    -0.275319714515E+02   -0.35517E-04   -0.19178E-06    58   0.814E-03    0.668E-04
RMM:  13    -0.275320049219E+02   -0.33470E-04   -0.26630E-06    60   0.693E-03    0.505E-04
RMM:  14    -0.275320174386E+02   -0.12517E-04   -0.65536E-07    52   0.641E-03    0.420E-04
RMM:  15    -0.275320242551E+02   -0.68165E-05   -0.41843E-07    47   0.490E-03    0.377E-04
RMM:  16    -0.275320330631E+02   -0.88080E-05   -0.41938E-07    48   0.453E-03    0.232E-04
RMM:  17    -0.275320391599E+02   -0.60967E-05   -0.32633E-07    47   0.421E-03    0.237E-04
RMM:  18    -0.275320431698E+02   -0.40099E-05   -0.27220E-07    47   0.346E-03    0.118E-04
RMM:  19    -0.275320451103E+02   -0.19405E-05   -0.16681E-07    46   0.324E-03    0.148E-04
RMM:  20    -0.275320461374E+02   -0.10271E-05   -0.97966E-08    41   0.218E-03    0.717E-05
RMM:  21    -0.275320467508E+02   -0.61342E-06   -0.58182E-08    40   0.205E-03
  25 F= -.27551100E+02 E0= -.27551100E+02  d E =-.259454E-01  mag=     1.0000
       N       E                     dE             d eps       ncg     rms          rms(c)
DAV:   1    -0.275242821781E+02    0.77640E-02   -0.82595E+00    72   0.280E+01    0.121E+00
RMM:   2    -0.275400491200E+02   -0.15767E-01   -0.18564E-01    72   0.336E+00    0.606E-01
RMM:   3    -0.275442190765E+02   -0.41700E-02   -0.16394E-02    73   0.138E+00    0.330E-01
RMM:   4    -0.275450984841E+02   -0.87941E-03   -0.37455E-03    76   0.352E-01    0.120E-01
RMM:   5    -0.275463963835E+02   -0.12979E-02   -0.39596E-04    73   0.201E-01    0.464E-02
RMM:   6    -0.275469847948E+02   -0.58841E-03   -0.10902E-04    83   0.621E-02    0.271E-02
RMM:   7    -0.275475497725E+02   -0.56498E-03   -0.30279E-05    75   0.310E-02    0.798E-03
RMM:   8    -0.275477683116E+02   -0.21854E-03   -0.87048E-06    69   0.169E-02    0.479E-03
RMM:   9    -0.275479827378E+02   -0.21443E-03   -0.60795E-06    66   0.112E-02    0.341E-03
RMM:  10    -0.275482772505E+02   -0.29451E-03   -0.13207E-05    69   0.145E-02    0.216E-03
RMM:  11    -0.275484233541E+02   -0.14610E-03   -0.90625E-06    65   0.114E-02    0.176E-03
RMM:  12    -0.275485120571E+02   -0.88703E-04   -0.46141E-06    61   0.937E-03    0.121E-03
RMM:  13    -0.275485961794E+02   -0.84122E-04   -0.61718E-06    63   0.993E-03    0.841E-04
RMM:  14    -0.275486225251E+02   -0.26346E-04   -0.14775E-06    55   0.831E-03    0.572E-04
RMM:  15    -0.275486395628E+02   -0.17038E-04   -0.85807E-07    54   0.625E-03    0.463E-04
RMM:  16    -0.275486589664E+02   -0.19404E-04   -0.78087E-07    52   0.578E-03    0.366E-04
RMM:  17    -0.275486731839E+02   -0.14218E-04   -0.68153E-07    49   0.511E-03    0.244E-04
RMM:  18    -0.275486787196E+02   -0.55357E-05   -0.34038E-07    47   0.449E-03    0.206E-04
RMM:  19    -0.275486824561E+02   -0.37364E-05   -0.21438E-07    47   0.344E-03    0.159E-04
RMM:  20    -0.275486850549E+02   -0.25988E-05   -0.13921E-07    44   0.288E-03    0.102E-04
RMM:  21    -0.275486871220E+02   -0.20672E-05   -0.84907E-08    41   0.230E-03    0.100E-04
RMM:  22    -0.275486881570E+02   -0.10350E-05   -0.48953E-08    40   0.192E-03    0.572E-05
RMM:  23    -0.275486891765E+02   -0.10195E-05   -0.27735E-08    39   0.161E-03    0.662E-05
RMM:  24    -0.275486899006E+02   -0.72411E-06   -0.17008E-08    37   0.142E-03
  26 F= -.27567790E+02 E0= -.27567790E+02  d E =-.426353E-01  mag=     1.0000
       N       E                     dE             d eps       ncg     rms          rms(c)
DAV:   1    -0.275628350837E+02   -0.14146E-01   -0.77707E-01    90   0.853E+00    0.236E-01
RMM:   2    -0.275634526738E+02   -0.61759E-03   -0.15412E-02    72   0.905E-01    0.160E-01
RMM:   3    -0.275641653232E+02   -0.71265E-03   -0.10759E-03    75   0.289E-01    0.107E-01
RMM:   4    -0.275641195280E+02    0.45795E-04   -0.26339E-04    76   0.960E-02    0.417E-02
RMM:   5    -0.275644283691E+02   -0.30884E-03   -0.36100E-05    76   0.521E-02    0.138E-02
RMM:   6    -0.275645758361E+02   -0.14747E-03   -0.85639E-06    70   0.187E-02    0.701E-03
RMM:   7    -0.275646896571E+02   -0.11382E-03   -0.33874E-06    60   0.138E-02    0.254E-03
RMM:   8    -0.275647440012E+02   -0.54344E-04   -0.88049E-07    53   0.806E-03    0.135E-03
RMM:   9    -0.275647837582E+02   -0.39757E-04   -0.71918E-07    54   0.661E-03    0.965E-04
RMM:  10    -0.275648256608E+02   -0.41903E-04   -0.87824E-07    54   0.570E-03    0.682E-04
RMM:  11    -0.275648619288E+02   -0.36268E-04   -0.90809E-07    54   0.617E-03    0.530E-04
RMM:  12    -0.275648880626E+02   -0.26134E-04   -0.86779E-07    54   0.584E-03    0.350E-04
RMM:  13    -0.275649056388E+02   -0.17576E-04   -0.75110E-07    50   0.563E-03    0.300E-04
RMM:  14    -0.275649161484E+02   -0.10510E-04   -0.52374E-07    51   0.508E-03    0.270E-04
RMM:  15    -0.275649218631E+02   -0.57147E-05   -0.37400E-07    47   0.448E-03    0.197E-04
RMM:  16    -0.275649249889E+02   -0.31258E-05   -0.25919E-07    47   0.391E-03    0.168E-04
RMM:  17    -0.275649274280E+02   -0.24391E-05   -0.18221E-07    46   0.314E-03    0.129E-04
RMM:  18    -0.275649292843E+02   -0.18562E-05   -0.12399E-07    44   0.271E-03    0.103E-04
RMM:  19    -0.275649305813E+02   -0.12971E-05   -0.87090E-08    41   0.222E-03    0.883E-05
RMM:  20    -0.275649311614E+02   -0.58003E-06   -0.54247E-08    41   0.204E-03
  27 F= -.27584007E+02 E0= -.27584007E+02  d E =-.162173E-01  mag=     1.0000
       N       E                     dE             d eps       ncg     rms          rms(c)
DAV:   1    -0.276023783338E+02   -0.37448E-01   -0.70201E+00    72   0.256E+01    0.742E-01
RMM:   2    -0.276118339671E+02   -0.94556E-02   -0.14125E-01    72   0.274E+00    0.501E-01
RMM:   3    -0.276164566953E+02   -0.46227E-02   -0.10088E-02    75   0.881E-01    0.329E-01
RMM:   4    -0.276164007838E+02    0.55912E-04   -0.24465E-03    76   0.294E-01    0.127E-01
RMM:   5    -0.276182541448E+02   -0.18534E-02   -0.32734E-04    75   0.165E-01    0.472E-02
RMM:   6    -0.276191480764E+02   -0.89393E-03   -0.84416E-05    76   0.584E-02    0.215E-02
RMM:   7    -0.276197107206E+02   -0.56264E-03   -0.24372E-05    76   0.339E-02    0.791E-03
RMM:   8    -0.276200045627E+02   -0.29384E-03   -0.62346E-06    66   0.136E-02    0.440E-03
RMM:   9    -0.276202604835E+02   -0.25592E-03   -0.51816E-06    63   0.114E-02    0.269E-03
RMM:  10    -0.276205106028E+02   -0.25012E-03   -0.67441E-06    65   0.114E-02    0.185E-03
RMM:  11    -0.276206928830E+02   -0.18228E-03   -0.53948E-06    63   0.109E-02    0.131E-03
RMM:  12    -0.276208260895E+02   -0.13321E-03   -0.44655E-06    62   0.932E-03    0.956E-04
RMM:  13    -0.276208813246E+02   -0.55235E-04   -0.24005E-06    60   0.887E-03    0.654E-04
RMM:  14    -0.276209248865E+02   -0.43562E-04   -0.18424E-06    57   0.699E-03    0.409E-04
RMM:  15    -0.276209433720E+02   -0.18485E-04   -0.86043E-07    54   0.672E-03    0.354E-04
RMM:  16    -0.276209564745E+02   -0.13103E-04   -0.54866E-07    52   0.520E-03    0.277E-04
RMM:  17    -0.276209683458E+02   -0.11871E-04   -0.36304E-07    49   0.426E-03    0.173E-04
RMM:  18    -0.276209746720E+02   -0.63262E-05   -0.24225E-07    47   0.384E-03    0.151E-04
RMM:  19    -0.276209776547E+02   -0.29827E-05   -0.15542E-07    47   0.308E-03    0.980E-05
RMM:  20    -0.276209804542E+02   -0.27995E-05   -0.98288E-08    43   0.249E-03    0.814E-05
RMM:  21    -0.276209818319E+02   -0.13777E-05   -0.58008E-08    41   0.203E-03    0.537E-05
RMM:  22    -0.276209832100E+02   -0.13782E-05   -0.36166E-08    41   0.172E-03    0.493E-05
RMM:  23    -0.276209839467E+02   -0.73668E-06   -0.21412E-08    40   0.148E-03
  28 F= -.27640052E+02 E0= -.27640052E+02  d E =-.722623E-01  mag=     1.0000
       N       E                     dE             d eps       ncg     rms          rms(c)
DAV:   1    -0.276923569758E+02   -0.71374E-01   -0.28230E+01    72   0.513E+01    0.158E+00
RMM:   2    -0.277322836267E+02   -0.39927E-01   -0.57905E-01    72   0.559E+00    0.104E+00
RMM:   3    -0.277472996783E+02   -0.15016E-01   -0.44184E-02    76   0.183E+00    0.672E-01
RMM:   4    -0.277490786659E+02   -0.17790E-02   -0.96667E-03    77   0.595E-01    0.273E-01
RMM:   5    -0.277552287194E+02   -0.61501E-02   -0.15127E-03    73   0.363E-01    0.109E-01
RMM:   6    -0.277581701043E+02   -0.29414E-02   -0.36377E-04    78   0.132E-01    0.408E-02
RMM:   7    -0.277595728570E+02   -0.14028E-02   -0.71516E-05    79   0.559E-02    0.183E-02
RMM:   8    -0.277605547793E+02   -0.98192E-03   -0.29102E-05    76   0.285E-02    0.996E-03
RMM:   9    -0.277613798703E+02   -0.82509E-03   -0.22516E-05    72   0.228E-02    0.595E-03
RMM:  10    -0.277619403579E+02   -0.56049E-03   -0.15613E-05    70   0.167E-02    0.420E-03
RMM:  11    -0.277626930854E+02   -0.75273E-03   -0.29560E-05    69   0.205E-02    0.281E-03
RMM:  12    -0.277630309207E+02   -0.33784E-03   -0.18118E-05    72   0.181E-02    0.184E-03
RMM:  13    -0.277631962828E+02   -0.16536E-03   -0.91922E-06    65   0.126E-02    0.132E-03
RMM:  14    -0.277632785266E+02   -0.82244E-04   -0.39870E-06    60   0.112E-02    0.839E-04
RMM:  15    -0.277633363585E+02   -0.57832E-04   -0.23017E-06    56   0.820E-03    0.687E-04
RMM:  16    -0.277633635910E+02   -0.27232E-04   -0.92222E-07    54   0.726E-03    0.508E-04
RMM:  17    -0.277633980871E+02   -0.34496E-04   -0.98320E-07    54   0.569E-03    0.379E-04
RMM:  18    -0.277634146061E+02   -0.16519E-04   -0.61969E-07    54   0.557E-03    0.265E-04
RMM:  19    -0.277634230593E+02   -0.84532E-05   -0.29248E-07    50   0.395E-03    0.197E-04
RMM:  20    -0.277634306508E+02   -0.75915E-05   -0.17039E-07    49   0.336E-03    0.133E-04
RMM:  21    -0.277634352674E+02   -0.46166E-05   -0.10744E-07    45   0.232E-03    0.104E-04
RMM:  22    -0.277634375298E+02   -0.22624E-05   -0.56561E-08    41   0.217E-03    0.739E-05
RMM:  23    -0.277634396038E+02   -0.20741E-05   -0.31973E-08    40   0.153E-03    0.545E-05
RMM:  24    -0.277634413781E+02   -0.17743E-05   -0.21450E-08    40   0.149E-03    0.574E-05
RMM:  25    -0.277634421376E+02   -0.75949E-06   -0.10724E-08    37   0.122E-03
  29 F= -.27782636E+02 E0= -.27782636E+02  d E =-.214846E+00  mag=     1.0000
       N       E                     dE             d eps       ncg     rms          rms(c)
DAV:   1    -0.277330297039E+02    0.30412E-01   -0.11283E+02    72   0.103E+02    0.288E+00
RMM:   2    -0.279618184724E+02   -0.22879E+00   -0.24009E+00    72   0.116E+01    0.190E+00
RMM:   3    -0.280100204988E+02   -0.48202E-01   -0.16427E-01    75   0.373E+00    0.131E+00
RMM:   4    -0.280160676528E+02   -0.60472E-02   -0.44263E-02    76   0.121E+00    0.532E-01
RMM:   5    -0.280300843014E+02   -0.14017E-01   -0.57592E-03    73   0.694E-01    0.178E-01
RMM:   6    -0.280366627389E+02   -0.65784E-02   -0.13198E-03    75   0.281E-01    0.816E-02
RMM:   7    -0.280394513480E+02   -0.27886E-02   -0.26040E-04    80   0.104E-01    0.341E-02
RMM:   8    -0.280415364786E+02   -0.20851E-02   -0.10239E-04    78   0.563E-02    0.199E-02
RMM:   9    -0.280427630518E+02   -0.12266E-02   -0.40060E-05    76   0.366E-02    0.126E-02
RMM:  10    -0.280441967446E+02   -0.14337E-02   -0.48746E-05    74   0.308E-02    0.788E-03
RMM:  11    -0.280451982493E+02   -0.10015E-02   -0.38699E-05    71   0.249E-02    0.567E-03
RMM:  12    -0.280463402351E+02   -0.11420E-02   -0.55141E-05    73   0.266E-02    0.406E-03
RMM:  13    -0.280468289649E+02   -0.48873E-03   -0.32272E-05    73   0.251E-02    0.250E-03
RMM:  14    -0.280470636752E+02   -0.23471E-03   -0.13960E-05    72   0.177E-02    0.168E-03
RMM:  15    -0.280471853430E+02   -0.12167E-03   -0.60658E-06    62   0.120E-02    0.135E-03
RMM:  16    -0.280472711262E+02   -0.85783E-04   -0.22712E-06    56   0.852E-03    0.927E-04
RMM:  17    -0.280473482622E+02   -0.77136E-04   -0.20609E-06    56   0.797E-03    0.701E-04
RMM:  18    -0.280473758141E+02   -0.27552E-04   -0.89335E-07    54   0.641E-03    0.533E-04
RMM:  19    -0.280473922778E+02   -0.16464E-04   -0.42139E-07    52   0.505E-03    0.383E-04
RMM:  20    -0.280474100265E+02   -0.17749E-04   -0.32722E-07    50   0.417E-03    0.245E-04
RMM:  21    -0.280474203484E+02   -0.10322E-04   -0.22228E-07    49   0.362E-03    0.210E-04
RMM:  22    -0.280474278348E+02   -0.74864E-05   -0.13606E-07    47   0.288E-03    0.127E-04
RMM:  23    -0.280474322451E+02   -0.44102E-05   -0.77405E-08    46   0.230E-03    0.922E-05
RMM:  24    -0.280474365873E+02   -0.43423E-05   -0.47660E-08    41   0.176E-03    0.643E-05
RMM:  25    -0.280474388516E+02   -0.22642E-05   -0.29074E-08    41   0.162E-03    0.568E-05
RMM:  26    -0.280474399396E+02   -0.10880E-05   -0.14733E-08    38   0.131E-03    0.296E-05
RMM:  27    -0.280474406390E+02   -0.69941E-06   -0.76899E-09    37   0.120E-03
  30 F= -.28066862E+02 E0= -.28066862E+02  d E =-.499072E+00  mag=     1.0000
       N       E                     dE             d eps       ncg     rms          rms(c)
DAV:   1    -0.267777437621E+02    0.12697E+01   -0.43202E+02    72   0.204E+02    0.475E+00
RMM:   2    -0.279772341314E+02   -0.11995E+01   -0.11727E+01    72   0.254E+01    0.340E+00
RMM:   3    -0.281254301981E+02   -0.14820E+00   -0.71769E-01    75   0.847E+00    0.301E+00
RMM:   4    -0.281255034849E+02   -0.73287E-04   -0.20010E-01    77   0.247E+00    0.198E+00
RMM:   5    -0.281507258769E+02   -0.25222E-01   -0.19537E-01    73   0.351E+00    0.105E+00
RMM:   6    -0.281455470562E+02    0.51788E-02   -0.12723E-02    75   0.782E-01    0.629E-01
RMM:   7    -0.281473331404E+02   -0.17861E-02   -0.70746E-03    78   0.630E-01    0.311E-01
RMM:   8    -0.281515347501E+02   -0.42016E-02   -0.70377E-03    79   0.640E-01    0.109E-01
RMM:   9    -0.281537714208E+02   -0.22367E-02   -0.78254E-04    81   0.202E-01    0.814E-02
RMM:  10    -0.281553368528E+02   -0.15654E-02   -0.21836E-04    81   0.106E-01    0.298E-02
RMM:  11    -0.281567110215E+02   -0.13742E-02   -0.51193E-05    79   0.385E-02    0.153E-02
RMM:  12    -0.281576196481E+02   -0.90863E-03   -0.19915E-05    72   0.250E-02    0.120E-02
RMM:  13    -0.281589114429E+02   -0.12918E-02   -0.35363E-05    71   0.230E-02    0.631E-03
RMM:  14    -0.281600098975E+02   -0.10985E-02   -0.48767E-05    77   0.302E-02    0.101E-02
RMM:  15    -0.281606364765E+02   -0.62658E-03   -0.23248E-05    71   0.205E-02    0.676E-03
RMM:  16    -0.281609934273E+02   -0.35695E-03   -0.15511E-05    71   0.171E-02    0.210E-03
RMM:  17    -0.281611661424E+02   -0.17272E-03   -0.47661E-06    64   0.130E-02    0.162E-03
RMM:  18    -0.281612645299E+02   -0.98388E-04   -0.23197E-06    58   0.898E-03    0.126E-03
RMM:  19    -0.281613379575E+02   -0.73428E-04   -0.15815E-06    57   0.703E-03    0.106E-03
RMM:  20    -0.281613850315E+02   -0.47074E-04   -0.94107E-07    54   0.631E-03    0.544E-04
RMM:  21    -0.281614140188E+02   -0.28987E-04   -0.52284E-07    53   0.585E-03    0.474E-04
RMM:  22    -0.281614269554E+02   -0.12937E-04   -0.36417E-07    49   0.469E-03    0.345E-04
RMM:  23    -0.281614417220E+02   -0.14767E-04   -0.25612E-07    49   0.398E-03    0.309E-04
RMM:  24    -0.281614472946E+02   -0.55726E-05   -0.14508E-07    46   0.310E-03    0.241E-04
RMM:  25    -0.281614519707E+02   -0.46761E-05   -0.88873E-08    45   0.252E-03    0.165E-04
RMM:  26    -0.281614558908E+02   -0.39200E-05   -0.51599E-08    42   0.186E-03    0.979E-05
RMM:  27    -0.281614578838E+02   -0.19931E-05   -0.29642E-08    40   0.163E-03    0.144E-04
RMM:  28    -0.281614589449E+02   -0.10611E-05   -0.16595E-08    38   0.138E-03    0.656E-05
RMM:  29    -0.281614593724E+02   -0.42749E-06   -0.84558E-09    37   0.123E-03
  31 F= -.28181269E+02 E0= -.28181269E+02  d E =-.613479E+00  mag=     1.0000
       N       E                     dE             d eps       ncg     rms          rms(c)
DAV:   1    -0.281668084098E+02   -0.53495E-02   -0.63843E-02    96   0.250E+00    0.574E-02
RMM:   2    -0.281667507201E+02    0.57690E-04   -0.11497E-03    72   0.247E-01    0.346E-02
RMM:   3    -0.281668748911E+02   -0.12417E-03   -0.10200E-04    76   0.794E-02    0.247E-02
RMM:   4    -0.281668854576E+02   -0.10566E-04   -0.20259E-05    75   0.307E-02    0.118E-02
RMM:   5    -0.281669196486E+02   -0.34191E-04   -0.54639E-06    68   0.170E-02    0.439E-03
RMM:   6    -0.281669231429E+02   -0.34943E-05   -0.11575E-06    54   0.865E-03    0.266E-03
RMM:   7    -0.281669275276E+02   -0.43847E-05   -0.31890E-07    53   0.654E-03    0.128E-03
RMM:   8    -0.281669316279E+02   -0.41003E-05   -0.22120E-07    53   0.308E-03    0.794E-04
RMM:   9    -0.281669341421E+02   -0.25142E-05   -0.89982E-08    51   0.306E-03    0.414E-04
RMM:  10    -0.281669350372E+02   -0.89516E-06   -0.43740E-08    45   0.204E-03
  32 F= -.28186761E+02 E0= -.28186761E+02  d E =-.549249E-02  mag=     1.0000
       N       E                     dE             d eps       ncg     rms          rms(c)
DAV:   1    -0.281825863990E+02   -0.15652E-01   -0.57485E-01    96   0.749E+00    0.173E-01
RMM:   2    -0.281827972884E+02   -0.21089E-03   -0.10154E-02    72   0.735E-01    0.104E-01
RMM:   3    -0.281834297923E+02   -0.63250E-03   -0.86381E-04    75   0.235E-01    0.732E-02
RMM:   4    -0.281834915604E+02   -0.61768E-04   -0.16411E-04    75   0.890E-02    0.347E-02
RMM:   5    -0.281836547300E+02   -0.16317E-03   -0.46054E-05    74   0.488E-02    0.131E-02
RMM:   6    -0.281836675577E+02   -0.12828E-04   -0.14749E-05    75   0.233E-02    0.841E-03
RMM:   7    -0.281836887498E+02   -0.21192E-04   -0.12218E-06    54   0.124E-02    0.383E-03
RMM:   8    -0.281837097545E+02   -0.21005E-04   -0.19212E-06    56   0.888E-03    0.256E-03
RMM:   9    -0.281837189972E+02   -0.92428E-05   -0.37654E-07    53   0.806E-03    0.107E-03
RMM:  10    -0.281837246956E+02   -0.56984E-05   -0.17488E-07    53   0.297E-03    0.778E-04
RMM:  11    -0.281837329412E+02   -0.82456E-05   -0.14111E-07    52   0.304E-03    0.440E-04
RMM:  12    -0.281837399719E+02   -0.70307E-05   -0.98602E-08    48   0.256E-03    0.240E-04
RMM:  13    -0.281837460563E+02   -0.60844E-05   -0.90537E-08    47   0.234E-03    0.175E-04
RMM:  14    -0.281837502205E+02   -0.41642E-05   -0.72733E-08    45   0.222E-03    0.131E-04
[...]
RMM:  15    -0.315146833731E+02   -0.29404E-04   -0.12718E-06    54   0.544E-03    0.363E-04
RMM:  16    -0.315146911754E+02   -0.78022E-05   -0.47345E-07    47   0.584E-03    0.318E-04
RMM:  17    -0.315146958138E+02   -0.46385E-05   -0.34656E-07    47   0.416E-03    0.225E-04
RMM:  18    -0.315146995934E+02   -0.37796E-05   -0.23303E-07    46   0.399E-03    0.220E-04
RMM:  19    -0.315147036553E+02   -0.40618E-05   -0.20214E-07    45   0.298E-03    0.142E-04
RMM:  20    -0.315147054914E+02   -0.18361E-05   -0.13290E-07    45   0.303E-03    0.144E-04
RMM:  21    -0.315147062215E+02   -0.73008E-06   -0.76199E-08    40   0.212E-03
  69 F= -.31535384E+02 E0= -.31535384E+02  d E =-.295203E-02  mag=     1.0000
       N       E                     dE             d eps       ncg     rms          rms(c)
DAV:   1    -0.315147091178E+02   -0.36264E-05   -0.15556E-04    96   0.124E-01    0.508E-03
RMM:   2    -0.315147062184E+02    0.28994E-05   -0.31424E-06    63   0.153E-02    0.247E-03
RMM:   3    -0.315147087169E+02   -0.24985E-05   -0.28272E-07    52   0.626E-03    0.145E-03
RMM:   4    -0.315147093466E+02   -0.62966E-06   -0.11506E-07    52   0.372E-03    0.870E-04
RMM:   5    -0.315147099228E+02   -0.57624E-06   -0.49047E-08    51   0.232E-03
  70 F= -.31535385E+02 E0= -.31535385E+02  d E =-.295371E-02  mag=     1.0000
       N       E                     dE             d eps       ncg     rms          rms(c)
DAV:   1    -0.315152385939E+02   -0.52925E-03   -0.17392E-01    96   0.413E+00    0.123E-01
RMM:   2    -0.315152551839E+02   -0.16590E-04   -0.36946E-03    72   0.519E-01    0.684E-02
RMM:   3    -0.315155540130E+02   -0.29883E-03   -0.27462E-04    76   0.161E-01    0.422E-02
RMM:   4    -0.315155821979E+02   -0.28185E-04   -0.65653E-05    82   0.500E-02    0.262E-02
RMM:   5    -0.315156193858E+02   -0.37188E-04   -0.18105E-05    75   0.349E-02    0.106E-02
RMM:   6    -0.315156369719E+02   -0.17586E-04   -0.66576E-06    67   0.173E-02    0.623E-03
RMM:   7    -0.315156475938E+02   -0.10622E-04   -0.11895E-06    54   0.111E-02    0.289E-03
RMM:   8    -0.315156542170E+02   -0.66233E-05   -0.73380E-07    53   0.698E-03    0.195E-03
RMM:   9    -0.315156584999E+02   -0.42829E-05   -0.24039E-07    52   0.560E-03    0.101E-03
RMM:  10    -0.315156616258E+02   -0.31259E-05   -0.15676E-07    52   0.346E-03    0.669E-04
RMM:  11    -0.315156660435E+02   -0.44178E-05   -0.16239E-07    52   0.293E-03    0.403E-04
RMM:  12    -0.315156688595E+02   -0.28160E-05   -0.11507E-07    50   0.296E-03    0.347E-04
RMM:  13    -0.315156715971E+02   -0.27375E-05   -0.11703E-07    46   0.245E-03    0.250E-04
RMM:  14    -0.315156754911E+02   -0.38940E-05   -0.17459E-07    46   0.282E-03    0.220E-04
RMM:  15    -0.315156776566E+02   -0.21654E-05   -0.14676E-07    46   0.312E-03    0.156E-04
RMM:  16    -0.315156790056E+02   -0.13491E-05   -0.12338E-07    46   0.271E-03    0.163E-04
RMM:  17    -0.315156801678E+02   -0.11621E-05   -0.10812E-07    46   0.252E-03    0.111E-04
RMM:  18    -0.315156808133E+02   -0.64553E-06   -0.75677E-08    45   0.228E-03
  71 F= -.31536430E+02 E0= -.31536430E+02  d E =-.104456E-02  mag=     1.0000
       N       E                     dE             d eps       ncg     rms          rms(c)
DAV:   1    -0.315156455632E+02    0.34605E-04   -0.64829E-02    96   0.252E+00    0.748E-02
RMM:   2    -0.315156010728E+02    0.44490E-04   -0.14027E-03    72   0.318E-01    0.420E-02
RMM:   3    -0.315157515082E+02   -0.15044E-03   -0.10565E-04    77   0.996E-02    0.260E-02
RMM:   4    -0.315157641896E+02   -0.12681E-04   -0.25075E-05    79   0.311E-02    0.163E-02
RMM:   5    -0.315157824080E+02   -0.18218E-04   -0.70050E-06    72   0.230E-02    0.667E-03
RMM:   6    -0.315157921146E+02   -0.97066E-05   -0.25561E-06    58   0.115E-02    0.384E-03
RMM:   7    -0.315157968680E+02   -0.47535E-05   -0.50525E-07    52   0.854E-03    0.184E-03
RMM:   8    -0.315157998152E+02   -0.29471E-05   -0.29258E-07    52   0.451E-03    0.129E-03
RMM:   9    -0.315158017943E+02   -0.19791E-05   -0.10742E-07    52   0.355E-03    0.648E-04
RMM:  10    -0.315158034489E+02   -0.16547E-05   -0.64798E-08    52   0.217E-03    0.415E-04
RMM:  11    -0.315158055805E+02   -0.21316E-05   -0.59602E-08    46   0.198E-03    0.238E-04
RMM:  12    -0.315158069247E+02   -0.13441E-05   -0.49055E-08    45   0.194E-03    0.192E-04
RMM:  13    -0.315158079925E+02   -0.10678E-05   -0.38377E-08    42   0.173E-03    0.140E-04
RMM:  14    -0.315158099302E+02   -0.19377E-05   -0.77038E-08    45   0.180E-03    0.171E-04
RMM:  15    -0.315158112846E+02   -0.13544E-05   -0.73770E-08    47   0.221E-03    0.127E-04
RMM:  16    -0.315158117608E+02   -0.47624E-06   -0.46175E-08    44   0.188E-03
  72 F= -.31536606E+02 E0= -.31536606E+02  d E =-.122015E-02  mag=     1.0000
       N       E                     dE             d eps       ncg     rms          rms(c)
DAV:   1    -0.315158242549E+02   -0.12970E-04   -0.20951E-01    96   0.462E+00    0.163E-01
RMM:   2    -0.315158084863E+02    0.15769E-04   -0.49986E-03    72   0.602E-01    0.806E-02
RMM:   3    -0.315160651072E+02   -0.25662E-03   -0.54798E-04    77   0.223E-01    0.528E-02
RMM:   4    -0.315161552610E+02   -0.90154E-04   -0.13157E-04    82   0.779E-02    0.355E-02
RMM:   5    -0.315162384712E+02   -0.83210E-04   -0.23697E-05    74   0.346E-02    0.216E-02
RMM:   6    -0.315162596790E+02   -0.21208E-04   -0.13781E-05    74   0.313E-02    0.974E-03
RMM:   7    -0.315162866663E+02   -0.26987E-04   -0.14938E-06    56   0.961E-03    0.386E-03
RMM:   8    -0.315162983791E+02   -0.11713E-04   -0.66188E-07    53   0.826E-03    0.187E-03
RMM:   9    -0.315163116402E+02   -0.13261E-04   -0.31558E-07    52   0.597E-03    0.868E-04
RMM:  10    -0.315163166426E+02   -0.50024E-05   -0.12716E-07    52   0.368E-03    0.524E-04
RMM:  11    -0.315163216624E+02   -0.50198E-05   -0.89889E-08    52   0.261E-03    0.307E-04
RMM:  12    -0.315163284173E+02   -0.67549E-05   -0.88685E-08    49   0.242E-03    0.228E-04
RMM:  13    -0.315163328847E+02   -0.44674E-05   -0.65506E-08    45   0.221E-03    0.153E-04
RMM:  14    -0.315163377717E+02   -0.48871E-05   -0.63316E-08    44   0.196E-03    0.140E-04
RMM:  15    -0.315163425556E+02   -0.47838E-05   -0.71861E-08    45   0.205E-03    0.111E-04
RMM:  16    -0.315163460420E+02   -0.34864E-05   -0.77479E-08    46   0.210E-03    0.100E-04
RMM:  17    -0.315163470792E+02   -0.10373E-05   -0.45556E-08    42   0.200E-03    0.782E-05
RMM:  18    -0.315163481998E+02   -0.11205E-05   -0.40603E-08    42   0.156E-03    0.720E-05
RMM:  19    -0.315163487391E+02   -0.53933E-06   -0.25672E-08    41   0.167E-03
  73 F= -.31537147E+02 E0= -.31537147E+02  d E =-.541110E-03  mag=     1.0000
       N       E                     dE             d eps       ncg     rms          rms(c)
DAV:   1    -0.315163532818E+02   -0.50821E-05   -0.19701E-03   120   0.445E-01    0.144E-02
RMM:   2    -0.315163376902E+02    0.15592E-04   -0.27250E-05    72   0.449E-02    0.757E-03
RMM:   3    -0.315163479586E+02   -0.10268E-04   -0.18858E-06    55   0.153E-02    0.482E-03
RMM:   4    -0.315163496618E+02   -0.17032E-05   -0.69682E-07    52   0.994E-03    0.288E-03
RMM:   5    -0.315163527610E+02   -0.30991E-05   -0.41395E-07    52   0.569E-03    0.151E-03
RMM:   6    -0.315163537140E+02   -0.95300E-06   -0.12396E-07    52   0.394E-03
  74 F= -.31537151E+02 E0= -.31537151E+02  d E =-.545708E-03  mag=     1.0000
       N       E                     dE             d eps       ncg     rms          rms(c)
DAV:   1    -0.315164597593E+02   -0.10700E-03   -0.57140E-02    96   0.231E+00    0.119E-01
RMM:   2    -0.315163758070E+02    0.83952E-04   -0.15409E-03    73   0.326E-01    0.557E-02
RMM:   3    -0.315164810179E+02   -0.10521E-03   -0.12783E-04    76   0.117E-01    0.333E-02
RMM:   4    -0.315165286702E+02   -0.47652E-04   -0.53329E-05    81   0.512E-02    0.209E-02
RMM:   5    -0.315165539918E+02   -0.25322E-04   -0.93073E-06    75   0.233E-02    0.953E-03
RMM:   6    -0.315165658903E+02   -0.11898E-04   -0.49988E-06    66   0.148E-02    0.653E-03
RMM:   7    -0.315165743725E+02   -0.84822E-05   -0.84724E-07    53   0.981E-03    0.249E-03
RMM:   8    -0.315165806547E+02   -0.62821E-05   -0.39498E-07    52   0.561E-03    0.108E-03
RMM:   9    -0.315165833641E+02   -0.27095E-05   -0.11612E-07    52   0.418E-03    0.681E-04
RMM:  10    -0.315165850888E+02   -0.17247E-05   -0.54458E-08    49   0.205E-03    0.409E-04
RMM:  11    -0.315165874145E+02   -0.23257E-05   -0.33698E-08    44   0.188E-03    0.225E-04
RMM:  12    -0.315165902727E+02   -0.28582E-05   -0.34984E-08    45   0.160E-03    0.152E-04
RMM:  13    -0.315165915317E+02   -0.12590E-05   -0.21124E-08    41   0.160E-03    0.880E-05
RMM:  14    -0.315165928989E+02   -0.13673E-05   -0.13945E-08    37   0.126E-03    0.715E-05
RMM:  15    -0.315165943028E+02   -0.14038E-05   -0.14483E-08    38   0.137E-03    0.769E-05
RMM:  16    -0.315165959409E+02   -0.16381E-05   -0.25780E-08    41   0.134E-03    0.723E-05
RMM:  17    -0.315165963966E+02   -0.45570E-06   -0.16369E-08    41   0.151E-03
  75 F= -.31537408E+02 E0= -.31537408E+02  d E =-.256251E-03  mag=     1.0000
       N       E                     dE             d eps       ncg     rms          rms(c)
DAV:   1    -0.315165967652E+02   -0.82436E-06   -0.24278E-05   120   0.473E-02    0.239E-03
RMM:   2    -0.315165963109E+02    0.45429E-06   -0.34793E-07    52   0.520E-03    0.118E-03
RMM:   3    -0.315165968925E+02   -0.58156E-06   -0.63132E-08    52   0.362E-03    0.636E-04
RMM:   4    -0.315165972006E+02   -0.30813E-06   -0.12887E-08    41   0.117E-03    0.332E-04
RMM:   5    -0.315165973592E+02   -0.15855E-06   -0.22088E-09    35   0.106E-03
  76 F= -.31537409E+02 E0= -.31537409E+02  d E =-.257487E-03  mag=     1.0000
       N       E                     dE             d eps       ncg     rms          rms(c)
DAV:   1    -0.315166164190E+02   -0.19218E-04   -0.20451E-02    96   0.146E+00    0.548E-02
RMM:   2    -0.315165651266E+02    0.51292E-04   -0.47618E-04    73   0.180E-01    0.252E-02
RMM:   3    -0.315166230860E+02   -0.57959E-04   -0.38169E-05    75   0.578E-02    0.156E-02
RMM:   4    -0.315166323724E+02   -0.92864E-05   -0.84010E-06    71   0.178E-02    0.990E-03
RMM:   5    -0.315166407083E+02   -0.83359E-05   -0.17992E-06    56   0.132E-02    0.476E-03
RMM:   6    -0.315166436922E+02   -0.29839E-05   -0.16212E-06    55   0.104E-02    0.310E-03
RMM:   7    -0.315166469900E+02   -0.32978E-05   -0.35215E-07    52   0.822E-03    0.153E-03
RMM:   8    -0.315166513363E+02   -0.43463E-05   -0.23216E-07    52   0.309E-03    0.909E-04
RMM:   9    -0.315166533260E+02   -0.19897E-05   -0.88248E-08    51   0.282E-03    0.506E-04
RMM:  10    -0.315166546873E+02   -0.13613E-05   -0.44074E-08    46   0.188E-03    0.357E-04
RMM:  11    -0.315166568724E+02   -0.21851E-05   -0.38958E-08    44   0.159E-03    0.217E-04
RMM:  12    -0.315166590634E+02   -0.21909E-05   -0.43246E-08    42   0.169E-03    0.150E-04
RMM:  13    -0.315166600695E+02   -0.10061E-05   -0.38188E-08    46   0.173E-03    0.132E-04
RMM:  14    -0.315166611259E+02   -0.10565E-05   -0.28020E-08    42   0.149E-03    0.106E-04
RMM:  15    -0.315166626714E+02   -0.15455E-05   -0.40985E-08    43   0.158E-03    0.105E-04
RMM:  16    -0.315166635741E+02   -0.90265E-06   -0.39143E-08    42   0.165E-03
  77 F= -.31537496E+02 E0= -.31537496E+02  d E =-.876929E-04  mag=     1.0000
       N       E                     dE             d eps       ncg     rms          rms(c)
DAV:   1    -0.315166609120E+02    0.17595E-05   -0.11005E-03   108   0.337E-01    0.135E-02
RMM:   2    -0.315166497533E+02    0.11159E-04   -0.14371E-05    72   0.324E-02    0.589E-03
RMM:   3    -0.315166573996E+02   -0.76464E-05   -0.78191E-07    52   0.105E-02    0.342E-03
RMM:   4    -0.315166590870E+02   -0.16874E-05   -0.35779E-07    52   0.688E-03    0.200E-03
RMM:   5    -0.315166603351E+02   -0.12481E-05   -0.19677E-07    52   0.514E-03    0.922E-04
RMM:   6    -0.315166610126E+02   -0.67750E-06   -0.97224E-08    52   0.244E-03
  78 F= -.31537499E+02 E0= -.31537499E+02  d E =-.900575E-04  mag=     1.0000
       N       E                     dE             d eps       ncg     rms          rms(c)
DAV:   1    -0.315166775049E+02   -0.17170E-04   -0.12151E-02    90   0.110E+00    0.417E-02
RMM:   2    -0.315166295836E+02    0.47921E-04   -0.29593E-04    73   0.146E-01    0.195E-02
RMM:   3    -0.315166496985E+02   -0.20115E-04   -0.37846E-05    81   0.527E-02    0.161E-02
RMM:   4    -0.315166623571E+02   -0.12659E-04   -0.48461E-06    68   0.178E-02    0.103E-02
RMM:   5    -0.315166761124E+02   -0.13755E-04   -0.37832E-06    64   0.146E-02    0.431E-03
RMM:   6    -0.315166817631E+02   -0.56506E-05   -0.69451E-07    53   0.835E-03    0.242E-03
RMM:   7    -0.315166876129E+02   -0.58499E-05   -0.27940E-07    52   0.640E-03    0.100E-03
RMM:   8    -0.315166918451E+02   -0.42322E-05   -0.17520E-07    52   0.321E-03    0.557E-04
RMM:   9    -0.315166950928E+02   -0.32477E-05   -0.86747E-08    52   0.324E-03    0.343E-04
RMM:  10    -0.315166966544E+02   -0.15616E-05   -0.53570E-08    49   0.199E-03    0.207E-04
RMM:  11    -0.315166987341E+02   -0.20797E-05   -0.41374E-08    44   0.184E-03    0.153E-04
RMM:  12    -0.315167010513E+02   -0.23171E-05   -0.46981E-08    43   0.171E-03    0.134E-04
RMM:  13    -0.315167020718E+02   -0.10205E-05   -0.33056E-08    44   0.187E-03    0.103E-04
RMM:  14    -0.315167032498E+02   -0.11780E-05   -0.30464E-08    39   0.140E-03    0.907E-05
RMM:  15    -0.315167039501E+02   -0.70030E-06   -0.23564E-08    41   0.162E-03
  79 F= -.31537553E+02 E0= -.31537553E+02  d E =-.544444E-04  mag=     1.0000
       N       E                     dE             d eps       ncg     rms          rms(c)
DAV:   1    -0.315167035245E+02   -0.27467E-06   -0.25300E-04   108   0.158E-01    0.591E-03
RMM:   2    -0.315166997610E+02    0.37634E-05   -0.33701E-06    62   0.161E-02    0.298E-03
RMM:   3    -0.315167015434E+02   -0.17823E-05   -0.36759E-07    52   0.728E-03    0.196E-03
RMM:   4    -0.315167020583E+02   -0.51495E-06   -0.16219E-07    52   0.466E-03    0.108E-03
RMM:   5    -0.315167029356E+02   -0.87725E-06   -0.70763E-08    52   0.252E-03
  80 F= -.31537554E+02 E0= -.31537554E+02  d E =-.550673E-04  mag=     1.0000
       N       E                     dE             d eps       ncg     rms          rms(c)
DAV:   1    -0.315166935498E+02    0.85086E-05   -0.65621E-03    96   0.802E-01    0.426E-02
RMM:   2    -0.315166806603E+02    0.12889E-04   -0.16962E-04    72   0.105E-01    0.184E-02
RMM:   3    -0.315166934908E+02   -0.12830E-04   -0.14106E-05    75   0.381E-02    0.988E-03
RMM:   4    -0.315167024072E+02   -0.89164E-05   -0.32770E-06    60   0.147E-02    0.507E-03
RMM:   5    -0.315167073661E+02   -0.49589E-05   -0.79880E-07    52   0.110E-02    0.245E-03
RMM:   6    -0.315167089882E+02   -0.16221E-05   -0.45499E-07    52   0.626E-03    0.192E-03
RMM:   7    -0.315167098830E+02   -0.89474E-06   -0.15381E-07    52   0.506E-03
  81 F= -.31537581E+02 E0= -.31537581E+02  d E =-.271962E-04  mag=     1.0000
       N       E                     dE             d eps       ncg     rms          rms(c)
DAV:   1    -0.315167094182E+02   -0.42999E-06   -0.16811E-05   120   0.401E-02    0.194E-03
RMM:   2    -0.315167092782E+02    0.13999E-06   -0.24753E-07    52   0.425E-03    0.937E-04
RMM:   3    -0.315167096799E+02   -0.40169E-06   -0.40304E-08    52   0.273E-03    0.517E-04
RMM:   4    -0.315167099655E+02   -0.28562E-06   -0.77652E-09    40   0.111E-03    0.242E-04
RMM:   5    -0.315167101470E+02   -0.18150E-06   -0.29691E-09    37   0.106E-03
  82 F= -.31537582E+02 E0= -.31537582E+02  d E =-.284601E-04  mag=     1.0000
       N       E                     dE             d eps       ncg     rms          rms(c)
DAV:   1    -0.315166958322E+02    0.14133E-04   -0.30483E-03    90   0.535E-01    0.220E-02
RMM:   2    -0.315166761670E+02    0.19665E-04   -0.79609E-05    74   0.733E-02    0.111E-02
RMM:   3    -0.315166896374E+02   -0.13470E-04   -0.58848E-06    67   0.245E-02    0.728E-03
RMM:   4    -0.315166927460E+02   -0.31086E-05   -0.12604E-06    53   0.100E-02    0.410E-03
RMM:   5    -0.315166953168E+02   -0.25708E-05   -0.49763E-07    52   0.908E-03    0.163E-03
RMM:   6    -0.315166970178E+02   -0.17010E-05   -0.29494E-07    52   0.422E-03    0.102E-03
RMM:   7    -0.315166978251E+02   -0.80725E-06   -0.77727E-08    52   0.297E-03
  83 F= -.31537584E+02 E0= -.31537584E+02  d E =-.159732E-05  mag=     1.0000
       N       E                     dE             d eps       ncg     rms          rms(c)
DAV:   1    -0.315167050924E+02   -0.80745E-05   -0.82113E-04   108   0.277E-01    0.115E-02
RMM:   2    -0.315166981896E+02    0.69028E-05   -0.17735E-05    73   0.343E-02    0.563E-03
RMM:   3    -0.315167052174E+02   -0.70278E-05   -0.11683E-06    54   0.118E-02    0.352E-03
RMM:   4    -0.315167075682E+02   -0.23507E-05   -0.46841E-07    52   0.720E-03    0.176E-03
RMM:   5    -0.315167089500E+02   -0.13819E-05   -0.19707E-07    52   0.489E-03    0.819E-04
RMM:   6    -0.315167095968E+02   -0.64678E-06   -0.98714E-08    52   0.328E-03
  84 F= -.31537588E+02 E0= -.31537588E+02  d E =-.615561E-05  mag=     1.0000
       N       E                     dE             d eps       ncg     rms          rms(c)
DAV:   1    -0.315167071700E+02    0.17800E-05   -0.16794E-04   120   0.125E-01    0.546E-03
RMM:   2    -0.315167046931E+02    0.24768E-05   -0.26270E-06    60   0.137E-02    0.264E-03
RMM:   3    -0.315167069171E+02   -0.22239E-05   -0.29414E-07    52   0.658E-03    0.154E-03
RMM:   4    -0.315167074050E+02   -0.48798E-06   -0.15237E-07    52   0.393E-03    0.867E-04
RMM:   5    -0.315167077157E+02   -0.31065E-06   -0.57333E-08    52   0.293E-03
  85 F= -.31537590E+02 E0= -.31537590E+02  d E =-.752520E-05  mag=     1.0000
       N       E                     dE             d eps       ncg     rms          rms(c)
DAV:   1    -0.315167064888E+02    0.91623E-06   -0.85580E-04    96   0.285E-01    0.844E-03
RMM:   2    -0.315166976991E+02    0.87897E-05   -0.14130E-05    72   0.307E-02    0.492E-03
RMM:   3    -0.315167043105E+02   -0.66113E-05   -0.80277E-07    53   0.922E-03    0.297E-03
RMM:   4    -0.315167051146E+02   -0.80408E-06   -0.36715E-07    52   0.583E-03    0.119E-03
RMM:   5    -0.315167063027E+02   -0.11881E-05   -0.13798E-07    52   0.418E-03    0.679E-04
RMM:   6    -0.315167069727E+02   -0.66995E-06   -0.52794E-08    49   0.261E-03
  86 F= -.31537592E+02 E0= -.31537592E+02  d E =-.263911E-05  mag=     1.0000
       N       E                     dE             d eps       ncg     rms          rms(c)
DAV:   1    -0.315167065823E+02   -0.27959E-06   -0.74569E-05   120   0.838E-02    0.253E-03
RMM:   2    -0.315167050024E+02    0.15799E-05   -0.79095E-07    52   0.746E-03    0.145E-03
RMM:   3    -0.315167061107E+02   -0.11083E-05   -0.10450E-07    52   0.419E-03    0.879E-04
RMM:   4    -0.315167063926E+02   -0.28198E-06   -0.47533E-08    52   0.215E-03    0.331E-04
RMM:   5    -0.315167066973E+02   -0.30468E-06   -0.13795E-08    46   0.153E-03
  87 F= -.31537593E+02 E0= -.31537593E+02  d E =-.335512E-05  mag=     1.0000
       N       E                     dE             d eps       ncg     rms          rms(c)
DAV:   1    -0.315167081600E+02   -0.17674E-05   -0.53326E-04    90   0.228E-01    0.733E-03
RMM:   2    -0.315167022205E+02    0.59395E-05   -0.11452E-05    72   0.275E-02    0.375E-03
RMM:   3    -0.315167068299E+02   -0.46094E-05   -0.68885E-07    52   0.936E-03    0.253E-03
RMM:   4    -0.315167075773E+02   -0.74746E-06   -0.32895E-07    52   0.681E-03    0.135E-03
RMM:   5    -0.315167085962E+02   -0.10188E-05   -0.16896E-07    52   0.384E-03    0.653E-04
RMM:   6    -0.315167090351E+02   -0.43888E-06   -0.70564E-08    50   0.305E-03
  88 F= -.31537595E+02 E0= -.31537595E+02  d E =-.160310E-05  mag=     1.0000
