 vasp.5.4.4.18Apr17-6-g9f103f2a35 (build May 21 2019 18:55:53) complex          
  
 executed on           IFC19_impi date 2025.08.26  20:46:11
 running on   24 total cores
 distrk:  each k-point on   24 cores,    1 groups
 distr:  one band on NCORES_PER_BAND=   4 cores,    6 groups


--------------------------------------------------------------------------------------------------------


 INCAR:
 POTCAR:    PAW_PBE O_GW_new 19Mar2012            
 POTCAR:    PAW_PBE C_GW_new 19Mar2012            
 POTCAR:    PAW_PBE H_h_GW 21Apr2008              
 POTCAR:    PAW_PBE O_GW_new 19Mar2012            
   SHA256 =  c493eb4e480bc193c6922e0b8c73e7a108f48fca6e73afddd92a880a1c2b3374 O_
   COPYR  = (c) Copyright 19Mar2012 Georg Kresse                                
   COPYR  = This file is part of the software VASP. Any use, copying, and all ot
   COPYR  = If you do not have a valid VASP license, you may not use, copy or di
   VRHFIN =O: s2p4                                                              
   LEXCH  = PE                                                                  
   EATOM  =   432.3788 eV,   31.7789 Ry                                         
                                                                                
   TITEL  = PAW_PBE O_GW_new 19Mar2012                                          
   LULTRA =        F    use ultrasoft PP ?                                      
   IUNSCR =        1    unscreen: 0-lin 1-nonlin 2-no                           
   RPACOR =    0.800    partial core radius                                     
   POMASS =   16.000; ZVAL   =    6.000    mass and valenz                      
   RCORE  =    1.600    outmost cutoff radius                                   
   RWIGS  =    1.600; RWIGS  =    0.847    wigner-seitz radius (au A)           
   ENMAX  =  434.431; ENMIN  =  325.824 eV                                      
   ICORE  =        3    local potential                                         
   LCOR   =        T    correct aug charges                                     
   LPAW   =        T    paw PP                                                  
   EAUG   = 1139.609                                                            
   DEXC   =    0.000                                                            
   RMAX   =    1.629    core radius for proj-oper                               
   RAUG   =    1.300    factor for augmentation sphere                          
   RDEP   =    1.652    radius for radial grids                                 
   RDEPT  =    1.200    core radius for aug-charge                              
                                                                                
   Atomic configuration                                                         
    5 entries                                                                   
     n  l   j            E        occ.                                          
     1  0  0.50      -514.6923   2.0000                                         
     2  0  0.50       -23.9615   2.0000                                         
     2  1  0.50        -9.0305   4.0000                                         
     3  2  1.50        -9.5241   0.0000                                         
     4  3  2.50        -9.5241   0.0000                                         
   Description                                                                  
     l       E           TYP  RCUT    TYP  RCUT                                 
     0    -23.9615316     23  1.150                                             
     0    -25.3221142     23  1.150                                             
     0    244.9048680     23  1.300                                             
     1     -9.0304908     23  1.500                                             
     1     -6.9258396     23  1.500                                             
     1    122.4524340     23  1.500                                             
     2     13.6058260     23  1.500                                             
     2    190.4815640     23  1.600                                             
     3     54.4233040     23  1.400                                             
  local pseudopotential read in
  partial core-charges read in
  partial kinetic energy density read in
  kinetic energy density of atom read in
  atomic valenz-charges read in
  non local Contribution for L=           0  read in
    real space projection operators read in
  non local Contribution for L=           0  read in
    real space projection operators read in
  non local Contribution for L=           0  read in
    real space projection operators read in
  non local Contribution for L=           1  read in
    real space projection operators read in
  non local Contribution for L=           1  read in
    real space projection operators read in
  non local Contribution for L=           1  read in
    real space projection operators read in
  non local Contribution for L=           2  read in
    real space projection operators read in
  non local Contribution for L=           2  read in
    real space projection operators read in
    PAW grid and wavefunctions read in
 
   number of l-projection  operators is LMAX  =           8
   number of lm-projection operators is LMMAX =          22
 
 POTCAR:    PAW_PBE C_GW_new 19Mar2012            
   SHA256 =  fd3f4f69ac51e962ca076bfc50bb68de54373009f6c2495f58fe5f585428a9ad C_
   COPYR  = (c) Copyright 19Mar2012 Georg Kresse                                
   COPYR  = This file is part of the software VASP. Any use, copying, and all ot
   COPYR  = If you do not have a valid VASP license, you may not use, copy or di
   VRHFIN =C: s2p2                                                              
   LEXCH  = PE                                                                  
   EATOM  =   147.1560 eV,   10.8157 Ry                                         
                                                                                
   TITEL  = PAW_PBE C_GW_new 19Mar2012                                          
   LULTRA =        F    use ultrasoft PP ?                                      
   IUNSCR =        1    unscreen: 0-lin 1-nonlin 2-no                           
   RPACOR =    0.800    partial core radius                                     
   POMASS =   12.011; ZVAL   =    4.000    mass and valenz                      
   RCORE  =    1.600    outmost cutoff radius                                   
   RWIGS  =    1.600; RWIGS  =    0.847    wigner-seitz radius (au A)           
   ENMAX  =  413.992; ENMIN  =  310.494 eV                                      
   ICORE  =        3    local potential                                         
   LCOR   =        T    correct aug charges                                     
   LPAW   =        T    paw PP                                                  
   EAUG   = 1213.930                                                            
   DEXC   =    0.000                                                            
   RMAX   =    1.630    core radius for proj-oper                               
   RAUG   =    1.300    factor for augmentation sphere                          
   RDEP   =    1.601    radius for radial grids                                 
   RDEPT  =    1.200    core radius for aug-charge                              
                                                                                
   Atomic configuration                                                         
    5 entries                                                                   
     n  l   j            E        occ.                                          
     1  0  0.50      -273.3789   2.0000                                         
     2  0  0.50       -13.7508   2.0000                                         
     2  1  0.50        -5.2854   2.0000                                         
     3  2  1.50        -5.4423   0.0000                                         
     4  3  2.50        -5.4423   0.0000                                         
   Description                                                                  
     l       E           TYP  RCUT    TYP  RCUT                                 
     0    -13.7508457     23  1.200                                             
     0     -7.5219285     23  1.200                                             
     0    272.1165200     23  1.300                                             
     1     -5.2854382     23  1.500                                             
     1    108.8466080     23  1.500                                             
     2     27.2116520     23  1.500                                             
     2    190.4815640     23  1.600                                             
     3     54.4233040     23  1.400                                             
  local pseudopotential read in
  partial core-charges read in
  partial kinetic energy density read in
  kinetic energy density of atom read in
  atomic valenz-charges read in
  non local Contribution for L=           0  read in
    real space projection operators read in
  non local Contribution for L=           0  read in
    real space projection operators read in
  non local Contribution for L=           0  read in
    real space projection operators read in
  non local Contribution for L=           1  read in
    real space projection operators read in
  non local Contribution for L=           1  read in
    real space projection operators read in
  non local Contribution for L=           2  read in
    real space projection operators read in
  non local Contribution for L=           2  read in
    real space projection operators read in
    PAW grid and wavefunctions read in
 
   number of l-projection  operators is LMAX  =           7
   number of lm-projection operators is LMMAX =          19
 
 POTCAR:    PAW_PBE H_h_GW 21Apr2008              
   SHA256 =  11729b5869c7e48a5e2a30c1e5c3422318a2a0526615c46624c4d60383c74252 H_
   COPYR  = (c) Copyright 21Apr2008 Georg Kresse                                
   COPYR  = This file is part of the software VASP. Any use, copying, and all ot
   COPYR  = If you do not have a valid VASP license, you may not use, copy or di
   VRHFIN =H: ultrasoft test                                                    
   LEXCH  = PE                                                                  
   EATOM  =    12.4884 eV,    0.9179 Ry                                         
                                                                                
   TITEL  = PAW_PBE H_h_GW 21Apr2008                                            
   LULTRA =        F    use ultrasoft PP ?                                      
   IUNSCR =        0    unscreen: 0-lin 1-nonlin 2-no                           
   RPACOR =    0.000    partial core radius                                     
   POMASS =    1.000; ZVAL   =    1.000    mass and valenz                      
   RCORE  =    0.800    outmost cutoff radius                                   
   RWIGS  =    1.100; RWIGS  =    0.582    wigner-seitz radius (au A)           
   ENMAX  =  700.000; ENMIN  =  350.000 eV                                      
   RCLOC  =    0.701    cutoff for local pot                                    
   LCOR   =        T    correct aug charges                                     
   LPAW   =        T    paw PP                                                  
   EAUG   = 1000.000                                                            
   RMAX   =    0.819    core radius for proj-oper                               
   RAUG   =    1.000    factor for augmentation sphere                          
   RDEP   =    0.817    radius for radial grids                                 
   RDEPT  =    1.000    core radius for aug-charge                              
                                                                                
   Atomic configuration                                                         
    3 entries                                                                   
     n  l   j            E        occ.                                          
     1  0  0.50        -6.4927   1.0000                                         
     2  1  0.50        -3.4015   0.0000                                         
     3  2  1.50        13.6058   0.0000                                         
   Description                                                                  
     l       E           TYP  RCUT    TYP  RCUT                                 
     0     -6.4927495     23  0.800                                             
     0      6.8029130     23  0.800                                             
     1     -4.0817478     23  0.800                                             
     1    108.8466080     23  0.800                                             
     2     81.6349560     23  0.800                                             
  local pseudopotential read in
  kinetic energy density of atom read in
  atomic valenz-charges read in
  non local Contribution for L=           0  read in
    real space projection operators read in
  non local Contribution for L=           0  read in
    real space projection operators read in
  non local Contribution for L=           1  read in
    real space projection operators read in
  non local Contribution for L=           1  read in
    real space projection operators read in
  non local Contribution for L=           2  read in
    real space projection operators read in
    PAW grid and wavefunctions read in
 
   number of l-projection  operators is LMAX  =           5
   number of lm-projection operators is LMMAX =          13
 

 ----------------------------------------------------------------------------- 
|                                                                             |
|  ADVICE TO THIS USER RUNNING 'VASP/VAMP'   (HEAR YOUR MASTER'S VOICE ...):  |
|                                                                             |
|      You have a (more or less) 'small supercell' and for smaller cells      |
|      it is recommended  to use the reciprocal-space projection scheme!      |
|      The real space optimization is not  efficient for small cells and it   |
|      is also less accurate ...                                              |
|      Therefore set LREAL=.FALSE. in the  INCAR file                         |
|                                                                             |
 ----------------------------------------------------------------------------- 

 Optimization of the real space projectors (new method)

 maximal supplied QI-value         = 23.62
 optimisation between [QCUT,QGAM] = [ 11.57, 23.15] = [ 37.52,150.06] Ry 
 Optimized for a Real-space Cutoff    1.53 Angstroem

   l    n(q)    QCUT    max X(q) W(low)/X(q) W(high)/X(q)  e(spline) 
   0     11    11.575   116.464    0.19E-03    0.50E-03    0.68E-05
   0     11    11.575   116.329    0.18E-03    0.48E-03    0.66E-05
   0     11    11.575     0.942    0.91E-04    0.25E-03    0.30E-05
   1     10    11.575    68.203    0.23E-03    0.52E-03    0.69E-05
   1     10    11.575    60.250    0.22E-03    0.51E-03    0.68E-05
   1     10    11.575     2.381    0.21E-03    0.47E-03    0.62E-05
   2     10    11.575     2.237    0.20E-04    0.44E-04    0.41E-06
   2     10    11.575     2.486    0.52E-04    0.84E-04    0.58E-06
 Optimization of the real space projectors (new method)

 maximal supplied QI-value         = 23.62
 optimisation between [QCUT,QGAM] = [ 11.57, 23.15] = [ 37.52,150.06] Ry 
 Optimized for a Real-space Cutoff    1.40 Angstroem

   l    n(q)    QCUT    max X(q) W(low)/X(q) W(high)/X(q)  e(spline) 
   0     10    11.575   214.472    0.12E-03    0.51E-03    0.36E-05
   0     10    11.575   163.224    0.12E-03    0.51E-03    0.36E-05
   0     10    11.575     0.672    0.22E-03    0.83E-03    0.56E-05
   1      9    11.575     2.978    0.13E-04    0.16E-04    0.12E-06
   1      9    11.575     2.423    0.91E-04    0.11E-03    0.33E-06
   2      9    11.575     2.026    0.29E-04    0.65E-04    0.23E-06
   2      9    11.575     2.119    0.11E-03    0.87E-04    0.33E-06
 Optimization of the real space projectors (new method)

 maximal supplied QI-value         = 47.24
 optimisation between [QCUT,QGAM] = [ 11.34, 23.15] = [ 36.00,150.06] Ry 
 Optimized for a Real-space Cutoff    1.49 Angstroem

   l    n(q)    QCUT    max X(q) W(low)/X(q) W(high)/X(q)  e(spline) 
   0     10    11.338    34.360    0.20E-03    0.15E-03    0.16E-05
   0     10    11.338    16.963    0.19E-03    0.15E-03    0.15E-05
   1     10    11.338     2.770    0.91E-04    0.81E-03    0.22E-05
   1     10    11.338     2.976    0.71E-04    0.63E-03    0.17E-05
   2      9    11.338     1.668    0.23E-03    0.90E-03    0.16E-05
  PAW_PBE O_GW_new 19Mar2012            :
 energy of atom  1       EATOM= -432.3788
 kinetic energy error for atom=    0.0246 (will be added to EATOM!!)
  PAW_PBE C_GW_new 19Mar2012            :
 energy of atom  2       EATOM= -147.1560
 kinetic energy error for atom=    0.0071 (will be added to EATOM!!)
  PAW_PBE H_h_GW 21Apr2008              :
 energy of atom  3       EATOM=  -12.4884
 kinetic energy error for atom=    0.0295 (will be added to EATOM!!)
 
 
 POSCAR: Li C  O                                 
  positions in direct lattice
  velocities in cartesian coordinates
 exchange correlation table for  LEXCH =        8
   RHO(1)=    0.500       N(1)  =     2000
   RHO(2)=  100.500       N(2)  =     4000

 VTST: version 3.2, (02/03/18)

 CHAIN: initializing optimizer
 
 OPT: Using VASP Conjugate-Gradient optimizer
 CHAIN: Read ICHAIN            0
 
 POSCAR: Li C  O                                 
  positions in direct lattice
  velocities in cartesian coordinates
 


--------------------------------------------------------------------------------------------------------


 ion  position               nearest neighbor table
   1  0.492  0.698  0.316-   4 1.03   3 1.28
   2  0.768  0.505  0.744-   3 1.22   6 1.57
   3  0.533  0.590  0.610-   6 1.21   2 1.22   1 1.28
   4  0.548  0.662  0.101-   1 1.03   6 1.33
   5  0.546  0.103  0.021-
   6  0.240  0.570  0.707-   3 1.21   4 1.33   2 1.57
 

IMPORTANT INFORMATION: All symmetrisations will be switched off!
NOSYMM: (Re-)initialisation of all symmetry stuff for point group C_1.

 
 
 KPOINTS: mof                                     

Automatic generation of k-mesh.
Space group operators:
 irot       det(A)        alpha          n_x          n_y          n_z        tau_x        tau_y        tau_z
    1     1.000000     0.000000     1.000000     0.000000     0.000000     0.000000     0.000000     0.000000
 
 Subroutine IBZKPT returns following result:
 ===========================================
 
 Found      1 irreducible k-points:
 
 Following reciprocal coordinates:
            Coordinates               Weight
  0.000000  0.000000  0.000000      1.000000
 
 Following cartesian coordinates:
            Coordinates               Weight
  0.000000  0.000000  0.000000      1.000000
 


--------------------------------------------------------------------------------------------------------




 Dimension of arrays:
   k-points           NKPTS =      1   k-points in BZ     NKDIM =      1   number of bands    NBANDS=     18
   number of dos      NEDOS =    301   number of ions     NIONS =      6
   non local maximal  LDIM  =      8   non local SUM 2l+1 LMDIM =     22
   total plane-waves  NPLWV =  42336
   max r-space proj   IRMAX =   9231   max aug-charges    IRDMAX=   6703
   dimension x,y,z NGX =    28 NGY =   54 NGZ =   28
   dimension x,y,z NGXF=    56 NGYF=  108 NGZF=   56
   support grid    NGXF=    56 NGYF=  108 NGZF=   56
   ions per type =               2   1   3
   NGX,Y,Z   is equivalent  to a cutoff of  12.81, 12.52, 12.16 a.u.
   NGXF,Y,Z  is equivalent  to a cutoff of  25.62, 25.04, 24.33 a.u.

 SYSTEM =  Co–organic framework                  
 POSCAR =  Li C  O                                 

 Startparameter for this run:
   NWRITE =      2    write-flag & timer
   PREC   = accura    normal or accurate (medium, high low for compatibility)
   ISTART =      0    job   : 0-new  1-cont  2-samecut
   ICHARG =      2    charge: 1-file 2-atom 10-const
   ISPIN  =      2    spin polarized calculation?
   LNONCOLLINEAR =      F non collinear calculations
   LSORBIT =      F    spin-orbit coupling
   INIWAV =      1    electr: 0-lowe 1-rand  2-diag
   LASPH  =      F    aspherical Exc in radial PAW
   METAGGA=      F    non-selfconsistent MetaGGA calc.

 Electronic Relaxation 1
   ENCUT  =  520.0 eV  38.22 Ry    6.18 a.u.   6.76 13.33  7.12*2*pi/ulx,y,z
   ENINI  =  520.0     initial cutoff
   ENAUG  = 1213.9 eV  augmentation charge cutoff
   NELM   =    100;   NELMIN=  5; NELMDL=  0     # of ELM steps 
   EDIFF  = 0.1E-05   stopping-criterion for ELM
   LREAL  =      T    real-space projection
   NLSPLINE    = F    spline interpolate recip. space projectors
   LCOMPAT=      F    compatible to vasp.4.4
   GGA_COMPAT  = T    GGA compatible to vasp.4.4-vasp.4.6
   LMAXPAW     = -100 max onsite density
   LMAXMIX     =    2 max onsite mixed and CHGCAR
   VOSKOWN=      0    Vosko Wilk Nusair interpolation
   ROPT   =   -0.00025  -0.00025  -0.00025
 Ionic relaxation
   EDIFFG = -.5E-02   stopping-criterion for IOM
   NSW    =   1000    number of steps for IOM
   NBLOCK =      1;   KBLOCK =   1000    inner block; outer block 
   IBRION =      2    ionic relax: 0-MD 1-quasi-New 2-CG
   NFREE  =      1    steps in history (QN), initial steepest desc. (CG)
   ISIF   =      3    stress and relaxation
   IWAVPR =     11    prediction:  0-non 1-charg 2-wave 3-comb
   ISYM   =      0    0-nonsym 1-usesym 2-fastsym
   LCORR  =      T    Harris-Foulkes like correction to forces

   POTIM  = 0.5000    time-step for ionic-motion
   TEIN   =    0.0    initial temperature
   TEBEG  =    0.0;   TEEND  =   0.0 temperature during run
   SMASS  =  -3.00    Nose mass-parameter (am)
   estimated Nose-frequenzy (Omega)   =  0.10E-29 period in steps =****** mass=  -0.302E-27a.u.
   SCALEE = 1.0000    scale energy and forces
   NPACO  =    256;   APACO  = 16.0  distance and # of slots for P.C.
   PSTRESS=    0.0 pullay stress

  Mass of Ions in am
   POMASS =  16.00 12.01  1.00
  Ionic Valenz
   ZVAL   =   6.00  4.00  1.00
  Atomic Wigner-Seitz radii
   RWIGS  =  -1.00 -1.00 -1.00
  virtual crystal weights 
   VCA    =   1.00  1.00  1.00
   NELECT =      19.0000    total number of electrons
   NUPDOWN=      -1.0000    fix difference up-down

 DOS related values:
   EMIN   =  10.00;   EMAX   =-10.00  energy-range for DOS
   EFERMI =   0.00
   ISMEAR =     0;   SIGMA  =   0.05  broadening in eV -4-tet -1-fermi 0-gaus

 Electronic relaxation 2 (details)
   IALGO  =     68    algorithm
   LDIAG  =      T    sub-space diagonalisation (order eigenvalues)
   LSUBROT=      F    optimize rotation matrix (better conditioning)
   TURBO    =      0    0=normal 1=particle mesh
   IRESTART =      0    0=no restart 2=restart with 2 vectors
   NREBOOT  =      0    no. of reboots
   NMIN     =      0    reboot dimension
   EREF     =   0.00    reference energy to select bands
   IMIX   =      4    mixing-type and parameters
     AMIX     =   0.40;   BMIX     =  1.00
     AMIX_MAG =   1.60;   BMIX_MAG =  1.00
     AMIN     =   0.10
     WC   =   100.;   INIMIX=   1;  MIXPRE=   1;  MAXMIX= -45

 Intra band minimization:
   WEIMIN = 0.0010     energy-eigenvalue tresh-hold
   EBREAK =  0.14E-07  absolut break condition
   DEPER  =   0.30     relativ break condition  

   TIME   =   0.40     timestep for ELM

  volume/ion in A,a.u.               =      11.62        78.39
  Fermi-wavevector in a.u.,A,eV,Ry     =   1.061502  2.005947 15.330852  1.126786
  Thomas-Fermi vector in A             =   2.196920
 
 Write flags
   LWAVE        =      F    write WAVECAR
   LDOWNSAMPLE  =      F    k-point downsampling of WAVECAR
   LCHARG       =      T    write CHGCAR
   LVTOT        =      F    write LOCPOT, total local potential
   LVHAR        =      F    write LOCPOT, Hartree potential only
   LELF         =      F    write electronic localiz. function (ELF)
   LORBIT       =      0    0 simple, 1 ext, 2 COOP (PROOUT), +10 PAW based schemes


 Dipole corrections
   LMONO  =      F    monopole corrections only (constant potential shift)
   LDIPOL =      F    correct potential (dipole corrections)
   IDIPOL =      0    1-x, 2-y, 3-z, 4-all directions 
   EPSILON=  1.0000000 bulk dielectric constant

 Exchange correlation treatment:
   GGA     =    --    GGA type
   LEXCH   =     8    internal setting for exchange type
   VOSKOWN=      0    Vosko Wilk Nusair interpolation
   LHFCALC =     F    Hartree Fock is set to
   LHFONE  =     F    Hartree Fock one center treatment
   AEXX    =    0.0000 exact exchange contribution

 Linear response parameters
   LEPSILON=     F    determine dielectric tensor
   LRPA    =     F    only Hartree local field effects (RPA)
   LNABLA  =     F    use nabla operator in PAW spheres
   LVEL    =     F    velocity operator in full k-point grid
   LINTERFAST=   F  fast interpolation
   KINTER  =     0    interpolate to denser k-point grid
   CSHIFT  =0.1000    complex shift for real part using Kramers Kronig
   OMEGAMAX=  -1.0    maximum frequency
   DEG_THRESHOLD= 0.2000000E-02 threshold for treating states as degnerate
   RTIME   =   -0.100 relaxation time in fs
  (WPLASMAI=    0.000 imaginary part of plasma frequency in eV, 0.658/RTIME)
   DFIELD  = 0.0000000 0.0000000 0.0000000 field for delta impulse in time
 
 Orbital magnetization related:
   ORBITALMAG=     F  switch on orbital magnetization
   LCHIMAG   =     F  perturbation theory with respect to B field
   DQ        =  0.001000  dq finite difference perturbation B field
   LLRAUG    =     F  two centre corrections for induced B field



--------------------------------------------------------------------------------------------------------


 conjugate gradient relaxation of ions
 charge density and potential will be updated during run
 spin polarized calculation
 RMM-DIIS sequential band-by-band and
  variant of blocked Davidson during initial phase
 perform sub-space diagonalisation
    before iterative eigenvector-optimisation
 modified Broyden-mixing scheme, WC =      100.0
 initial mixing is a Kerker type mixing with AMIX =  0.4000 and BMIX =      1.0000
 Hartree-type preconditioning will be used
 using additional bands            8
 real space projection scheme for non local part
 use partial core corrections
 calculate Harris-corrections to forces 
   (improved forces if not selfconsistent)
 use gradient corrections 
 use of overlap-Matrix (Vanderbilt PP)
 Gauss-broadening in eV      SIGMA  =   0.05


--------------------------------------------------------------------------------------------------------


  energy-cutoff  :      520.00
  volume of cell :       69.70
      direct lattice vectors                 reciprocal lattice vectors
     3.605492946 -0.456981189  0.023224992     0.299954736  0.186739969  0.165854480
    -3.451291694  6.237011709 -0.780612531     0.021986899  0.174137315  0.013083661
    -1.842672268 -0.019367516  3.354355962     0.003039869  0.039231595  0.300016251

  length of vectors
     3.634412001  7.170849695  3.827207874     0.390323415  0.176006847  0.302585707


 
 k-points in units of 2pi/SCALE and weight: mof                                     
   0.00000000  0.00000000  0.00000000       1.000
 
 k-points in reciprocal lattice and weights: mof                                     
   0.00000000  0.00000000  0.00000000       1.000
 
 position of ions in fractional coordinates (direct lattice) 
   0.49195708  0.69828056  0.31589391
   0.76787425  0.50482180  0.74436216
   0.53269285  0.58965041  0.61013304
   0.54836734  0.66196701  0.10124444
   0.54627307  0.10293431  0.02099238
   0.24048735  0.56999792  0.70737406
 
 position of ions in cartesian coordinates  (Angst):
  -1.21831105  4.12425079  0.52595976
  -0.34533761  2.78325897  2.12061931
  -1.23871050  3.42240917  1.59868670
  -0.49406699  3.87614159 -0.16439404
   1.57564530  0.39195941  0.00275129
  -2.40361220  3.43148544  1.93342219
 


--------------------------------------------------------------------------------------------------------


 k-point  1 :   0.0000 0.0000 0.0000  plane waves:    1871

 maximum and minimum number of plane-waves per node :       469      467

 maximum number of plane-waves:      1871
 maximum index in each direction: 
   IXMAX=    6   IYMAX=   13   IZMAX=    7
   IXMIN=   -6   IYMIN=  -13   IZMIN=   -7


 real space projection operators:
  total allocation   :       6563.33 KBytes
  max/ min on nodes  :       1646.28       1637.70


 parallel 3D FFT for wavefunctions:
    minimum data exchange during FFTs selected (reduces bandwidth)
 parallel 3D FFT for charge:
    minimum data exchange during FFTs selected (reduces bandwidth)


 total amount of memory used by VASP MPI-rank0    36515. kBytes
=======================================================================

   base      :      30000. kBytes
   nonlr-proj:       2957. kBytes
   fftplans  :        916. kBytes
   grid      :       2502. kBytes
   one-center:         92. kBytes
   wavefun   :         48. kBytes
 
     INWAV:  cpu time    0.0000: real time    0.0001
 Broyden mixing: mesh for mixing (old mesh)
   NGX = 13   NGY = 27   NGZ = 15
  (NGX  = 56   NGY  =108   NGZ  = 56)
  gives a total of   5265 points

 initial charge density was supplied:
 charge density of overlapping atoms calculated
 number of electron      19.0000000 magnetization       0.0000000
 keeping initial charge density in first step


--------------------------------------------------------------------------------------------------------


 Maximum index for non-local projection operator         2235
 Maximum index for augmentation-charges          357 (set IRDMAX)


--------------------------------------------------------------------------------------------------------


 First call to EWALD:  gamma=   0.431
 Maximum number of real-space cells 4x 2x 3
 Maximum number of reciprocal cells 2x 4x 3

    FEWALD:  cpu time    0.0020: real time    0.0023


--------------------------------------- Iteration      1(   1)  ---------------------------------------


    POTLOK:  cpu time    0.0270: real time    0.0298
    SETDIJ:  cpu time    0.0070: real time    0.0068
     EDDAV:  cpu time    0.0280: real time    0.0283
       DOS:  cpu time    0.0010: real time    0.0002
    --------------------------------------------
      LOOP:  cpu time    0.0630: real time    0.0651

 eigenvalue-minimisations  :    72
 total energy-change (2. order) : 0.1316615E+03  (-0.9371599E+03)
 number of electron      19.0000000 magnetization       0.0000000
 augmentation part       19.0000000 magnetization       0.0000000

 Free energy of the ion-electron system (eV)
  ---------------------------------------------------
  alpha Z        PSCENC =         9.23582037
  Ewald energy   TEWEN  =      -267.35072186
  -Hartree energ DENC   =      -662.68943594
  -exchange      EXHF   =         0.00000000
  -V(xc)+E(xc)   XCENC  =        66.75390478
  PAW double counting   =       815.20118904     -808.15874009
  entropy T*S    EENTRO =        -0.00000000
  eigenvalues    EBANDS =       -70.56440183
  atomic energy  EATOM  =      1049.23391391
  Solvation  Ediel_sol  =         0.00000000
  ---------------------------------------------------
  free energy    TOTEN  =       131.66152838 eV

  energy without entropy =      131.66152838  energy(sigma->0) =      131.66152838


--------------------------------------------------------------------------------------------------------




--------------------------------------- Iteration      1(   2)  ---------------------------------------


     EDDAV:  cpu time    0.0250: real time    0.0252
       DOS:  cpu time    0.0000: real time    0.0001
    --------------------------------------------
      LOOP:  cpu time    0.0250: real time    0.0253

 eigenvalue-minimisations  :    78
 total energy-change (2. order) :-0.1530241E+03  (-0.1457142E+03)
 number of electron      19.0000000 magnetization       0.0000000
 augmentation part       19.0000000 magnetization       0.0000000

 Free energy of the ion-electron system (eV)
  ---------------------------------------------------
  alpha Z        PSCENC =         9.23582037
  Ewald energy   TEWEN  =      -267.35072186
  -Hartree energ DENC   =      -662.68943594
  -exchange      EXHF   =         0.00000000
  -V(xc)+E(xc)   XCENC  =        66.75390478
  PAW double counting   =       815.20118904     -808.15874009
  entropy T*S    EENTRO =        -0.02331067
  eigenvalues    EBANDS =      -223.56523560
  atomic energy  EATOM  =      1049.23391391
  Solvation  Ediel_sol  =         0.00000000
  ---------------------------------------------------
  free energy    TOTEN  =       -21.36261605 eV

  energy without entropy =      -21.33930539  energy(sigma->0) =      -21.35096072


--------------------------------------------------------------------------------------------------------




--------------------------------------- Iteration      1(   3)  ---------------------------------------


     EDDAV:  cpu time    0.0290: real time    0.0294
       DOS:  cpu time    0.0000: real time    0.0001
    --------------------------------------------
      LOOP:  cpu time    0.0290: real time    0.0295

 eigenvalue-minimisations  :    96
 total energy-change (2. order) :-0.1235571E+02  (-0.1226556E+02)
 number of electron      19.0000000 magnetization       0.0000000
 augmentation part       19.0000000 magnetization       0.0000000

 Free energy of the ion-electron system (eV)
  ---------------------------------------------------
  alpha Z        PSCENC =         9.23582037
  Ewald energy   TEWEN  =      -267.35072186
  -Hartree energ DENC   =      -662.68943594
  -exchange      EXHF   =         0.00000000
  -V(xc)+E(xc)   XCENC  =        66.75390478
  PAW double counting   =       815.20118904     -808.15874009
  entropy T*S    EENTRO =        -0.02820863
  eigenvalues    EBANDS =      -235.91605048
  atomic energy  EATOM  =      1049.23391391
  Solvation  Ediel_sol  =         0.00000000
  ---------------------------------------------------
  free energy    TOTEN  =       -33.71832889 eV

  energy without entropy =      -33.69012027  energy(sigma->0) =      -33.70422458


--------------------------------------------------------------------------------------------------------




--------------------------------------- Iteration      1(   4)  ---------------------------------------


     EDDAV:  cpu time    0.0280: real time    0.0278
       DOS:  cpu time    0.0000: real time    0.0001
    --------------------------------------------
      LOOP:  cpu time    0.0280: real time    0.0279

 eigenvalue-minimisations  :    90
 total energy-change (2. order) :-0.2368275E+00  (-0.2362416E+00)
 number of electron      19.0000000 magnetization       0.0000000
 augmentation part       19.0000000 magnetization       0.0000000

 Free energy of the ion-electron system (eV)
  ---------------------------------------------------
  alpha Z        PSCENC =         9.23582037
  Ewald energy   TEWEN  =      -267.35072186
  -Hartree energ DENC   =      -662.68943594
  -exchange      EXHF   =         0.00000000
  -V(xc)+E(xc)   XCENC  =        66.75390478
  PAW double counting   =       815.20118904     -808.15874009
  entropy T*S    EENTRO =        -0.02820948
  eigenvalues    EBANDS =      -236.15287716
  atomic energy  EATOM  =      1049.23391391
  Solvation  Ediel_sol  =         0.00000000
  ---------------------------------------------------
  free energy    TOTEN  =       -33.95515643 eV

  energy without entropy =      -33.92694695  energy(sigma->0) =      -33.94105169


--------------------------------------------------------------------------------------------------------




--------------------------------------- Iteration      1(   5)  ---------------------------------------


     EDDAV:  cpu time    0.0330: real time    0.0334
       DOS:  cpu time    0.0010: real time    0.0001
    CHARGE:  cpu time    0.0030: real time    0.0033
    MIXING:  cpu time    0.0010: real time    0.0010
    --------------------------------------------
      LOOP:  cpu time    0.0380: real time    0.0378

 eigenvalue-minimisations  :   114
 total energy-change (2. order) :-0.6575911E-02  (-0.6575730E-02)
 number of electron      19.0000001 magnetization       0.0000006
 augmentation part        1.3283394 magnetization      -0.0000001

 Broyden mixing:
  rms(total) = 0.24669E+01    rms(broyden)= 0.24665E+01
  rms(prec ) = 0.27285E+01
  weight for this iteration     100.00

 Free energy of the ion-electron system (eV)
  ---------------------------------------------------
  alpha Z        PSCENC =         9.23582037
  Ewald energy   TEWEN  =      -267.35072186
  -Hartree energ DENC   =      -662.68943594
  -exchange      EXHF   =         0.00000000
  -V(xc)+E(xc)   XCENC  =        66.75390478
  PAW double counting   =       815.20118904     -808.15874009
  entropy T*S    EENTRO =        -0.02820948
  eigenvalues    EBANDS =      -236.15945307
  atomic energy  EATOM  =      1049.23391391
  Solvation  Ediel_sol  =         0.00000000
  ---------------------------------------------------
  free energy    TOTEN  =       -33.96173234 eV

  energy without entropy =      -33.93352286  energy(sigma->0) =      -33.94762760


--------------------------------------------------------------------------------------------------------




--------------------------------------- Iteration      1(   6)  ---------------------------------------


    POTLOK:  cpu time    0.0230: real time    0.0227
    SETDIJ:  cpu time    0.0060: real time    0.0062
    EDDIAG:  cpu time    0.0030: real time    0.0028
  RMM-DIIS:  cpu time    0.0150: real time    0.0160
    ORTHCH:  cpu time    0.0000: real time    0.0004
       DOS:  cpu time    0.0000: real time    0.0001
    CHARGE:  cpu time    0.0040: real time    0.0040
    MIXING:  cpu time    0.0010: real time    0.0006
    --------------------------------------------
      LOOP:  cpu time    0.0520: real time    0.0528

 eigenvalue-minimisations  :    72
 total energy-change (2. order) : 0.1515921E+01  (-0.2639094E+00)
 number of electron      19.0000001 magnetization       0.0001117
 augmentation part        1.1669216 magnetization       0.0000099

 Broyden mixing:
  rms(total) = 0.16005E+01    rms(broyden)= 0.16005E+01
  rms(prec ) = 0.16593E+01
  weight for this iteration     100.00

 eigenvalues of (default mixing * dielectric matrix)
  average eigenvalue GAMMA=   1.9896
  1.9896

 Free energy of the ion-electron system (eV)
  ---------------------------------------------------
  alpha Z        PSCENC =         9.23582037
  Ewald energy   TEWEN  =      -267.35072186
  -Hartree energ DENC   =      -690.85411161
  -exchange      EXHF   =         0.00000000
  -V(xc)+E(xc)   XCENC  =        68.30854586
  PAW double counting   =      1211.15795045    -1204.26450597
  entropy T*S    EENTRO =        -0.02820948
  eigenvalues    EBANDS =      -207.88449304
  atomic energy  EATOM  =      1049.23391391
  Solvation  Ediel_sol  =         0.00000000
  ---------------------------------------------------
  free energy    TOTEN  =       -32.44581137 eV

  energy without entropy =      -32.41760189  energy(sigma->0) =      -32.43170663


--------------------------------------------------------------------------------------------------------




--------------------------------------- Iteration      1(   7)  ---------------------------------------


    POTLOK:  cpu time    0.0210: real time    0.0217
    SETDIJ:  cpu time    0.0060: real time    0.0061
    EDDIAG:  cpu time    0.0030: real time    0.0026
  RMM-DIIS:  cpu time    0.0140: real time    0.0141
    ORTHCH:  cpu time    0.0010: real time    0.0004
       DOS:  cpu time    0.0000: real time    0.0001
    CHARGE:  cpu time    0.0030: real time    0.0029
    MIXING:  cpu time    0.0000: real time    0.0005
    --------------------------------------------
      LOOP:  cpu time    0.0480: real time    0.0485

 eigenvalue-minimisations  :    72
 total energy-change (2. order) : 0.1860578E+00  (-0.5282956E-01)
 number of electron      19.0000001 magnetization       0.0057169
 augmentation part        1.1554716 magnetization       0.0012739

 Broyden mixing:
  rms(total) = 0.56323E+00    rms(broyden)= 0.56323E+00
  rms(prec ) = 0.58192E+00
  weight for this iteration     100.00

 eigenvalues of (default mixing * dielectric matrix)
  average eigenvalue GAMMA=   1.6963
  1.0072  2.3855

 Free energy of the ion-electron system (eV)
  ---------------------------------------------------
  alpha Z        PSCENC =         9.23582037
  Ewald energy   TEWEN  =      -267.35072186
  -Hartree energ DENC   =      -701.01801264
  -exchange      EXHF   =         0.00000000
  -V(xc)+E(xc)   XCENC  =        68.84679806
  PAW double counting   =      1705.17211664    -1698.46779426
  entropy T*S    EENTRO =        -0.02820903
  eigenvalues    EBANDS =      -197.88366471
  atomic energy  EATOM  =      1049.23391391
  Solvation  Ediel_sol  =         0.00000000
  ---------------------------------------------------
  free energy    TOTEN  =       -32.25975352 eV

  energy without entropy =      -32.23154450  energy(sigma->0) =      -32.24564901


--------------------------------------------------------------------------------------------------------




--------------------------------------- Iteration      1(   8)  ---------------------------------------


    POTLOK:  cpu time    0.0220: real time    0.0216
    SETDIJ:  cpu time    0.0060: real time    0.0061
    EDDIAG:  cpu time    0.0030: real time    0.0026
  RMM-DIIS:  cpu time    0.0140: real time    0.0143
    ORTHCH:  cpu time    0.0000: real time    0.0004
       DOS:  cpu time    0.0000: real time    0.0001
    CHARGE:  cpu time    0.0030: real time    0.0029
    MIXING:  cpu time    0.0010: real time    0.0005
    --------------------------------------------
      LOOP:  cpu time    0.0490: real time    0.0486

 eigenvalue-minimisations  :    72
 total energy-change (2. order) : 0.3449257E-02  (-0.5635599E-02)
 number of electron      19.0000001 magnetization       0.2121613
 augmentation part        1.1433759 magnetization      -0.0077277

 Broyden mixing:
  rms(total) = 0.12148E+00    rms(broyden)= 0.12146E+00
  rms(prec ) = 0.13752E+00
  weight for this iteration     100.00

 eigenvalues of (default mixing * dielectric matrix)
  average eigenvalue GAMMA=   1.2782
  2.4025  1.0240  0.4081

 Free energy of the ion-electron system (eV)
  ---------------------------------------------------
  alpha Z        PSCENC =         9.23582037
  Ewald energy   TEWEN  =      -267.35072186
  -Hartree energ DENC   =      -704.14782760
  -exchange      EXHF   =         0.00000000
  -V(xc)+E(xc)   XCENC  =        69.06641597
  PAW double counting   =      1987.53973734    -1980.93097480
  entropy T*S    EENTRO =        -0.02709024
  eigenvalues    EBANDS =      -194.87557736
  atomic energy  EATOM  =      1049.23391391
  Solvation  Ediel_sol  =         0.00000000
  ---------------------------------------------------
  free energy    TOTEN  =       -32.25630427 eV

  energy without entropy =      -32.22921403  energy(sigma->0) =      -32.24275915


--------------------------------------------------------------------------------------------------------




--------------------------------------- Iteration      1(   9)  ---------------------------------------


    POTLOK:  cpu time    0.0220: real time    0.0217
    SETDIJ:  cpu time    0.0060: real time    0.0061
    EDDIAG:  cpu time    0.0020: real time    0.0026
  RMM-DIIS:  cpu time    0.0150: real time    0.0143
    ORTHCH:  cpu time    0.0000: real time    0.0004
       DOS:  cpu time    0.0000: real time    0.0001
    CHARGE:  cpu time    0.0030: real time    0.0029
    MIXING:  cpu time    0.0000: real time    0.0005
    --------------------------------------------
      LOOP:  cpu time    0.0480: real time    0.0486

 eigenvalue-minimisations  :    72
 total energy-change (2. order) :-0.2959923E+00  (-0.1574550E-02)
 number of electron      19.0000001 magnetization      -0.0386495
 augmentation part        1.1484184 magnetization      -1.0225341

 Broyden mixing:
  rms(total) = 0.30141E+00    rms(broyden)= 0.30138E+00
  rms(prec ) = 0.30324E+00
  weight for this iteration     100.00

 eigenvalues of (default mixing * dielectric matrix)
  average eigenvalue GAMMA=   1.2657
  2.4616  1.2330  0.8959  0.4723

 Free energy of the ion-electron system (eV)
  ---------------------------------------------------
  alpha Z        PSCENC =         9.23582037
  Ewald energy   TEWEN  =      -267.35072186
  -Hartree energ DENC   =      -703.19222380
  -exchange      EXHF   =         0.00000000
  -V(xc)+E(xc)   XCENC  =        69.05800822
  PAW double counting   =      2009.36788688    -2002.76228352
  entropy T*S    EENTRO =        -0.00000000
  eigenvalues    EBANDS =      -196.14269680
  atomic energy  EATOM  =      1049.23391391
  Solvation  Ediel_sol  =         0.00000000
  ---------------------------------------------------
  free energy    TOTEN  =       -32.55229660 eV

  energy without entropy =      -32.55229660  energy(sigma->0) =      -32.55229660


--------------------------------------------------------------------------------------------------------




--------------------------------------- Iteration      1(  10)  ---------------------------------------


    POTLOK:  cpu time    0.0220: real time    0.0216
    SETDIJ:  cpu time    0.0060: real time    0.0061
    EDDIAG:  cpu time    0.0030: real time    0.0026
  RMM-DIIS:  cpu time    0.0140: real time    0.0143
    ORTHCH:  cpu time    0.0010: real time    0.0004
       DOS:  cpu time    0.0000: real time    0.0001
    CHARGE:  cpu time    0.0030: real time    0.0029
    MIXING:  cpu time    0.0000: real time    0.0006
    --------------------------------------------
      LOOP:  cpu time    0.0490: real time    0.0487

 eigenvalue-minimisations  :    72
 total energy-change (2. order) : 0.2773370E+00  (-0.1061813E-02)
 number of electron      19.0000001 magnetization       0.1291331
 augmentation part        1.1470560 magnetization       0.9818901

 Broyden mixing:
  rms(total) = 0.34781E+00    rms(broyden)= 0.34771E+00
  rms(prec ) = 0.34853E+00
  weight for this iteration     100.00

 eigenvalues of (default mixing * dielectric matrix)
  average eigenvalue GAMMA=   1.1016
  2.4741  1.3458  0.9126  0.5735  0.2020

 Free energy of the ion-electron system (eV)
  ---------------------------------------------------
  alpha Z        PSCENC =         9.23582037
  Ewald energy   TEWEN  =      -267.35072186
  -Hartree energ DENC   =      -702.94902842
  -exchange      EXHF   =         0.00000000
  -V(xc)+E(xc)   XCENC  =        69.02569529
  PAW double counting   =      2011.93618832    -2005.33154525
  entropy T*S    EENTRO =        -0.00911831
  eigenvalues    EBANDS =      -196.06616367
  atomic energy  EATOM  =      1049.23391391
  Solvation  Ediel_sol  =         0.00000000
  ---------------------------------------------------
  free energy    TOTEN  =       -32.27495961 eV

  energy without entropy =      -32.26584130  energy(sigma->0) =      -32.27040045


--------------------------------------------------------------------------------------------------------




--------------------------------------- Iteration      1(  11)  ---------------------------------------


    POTLOK:  cpu time    0.0220: real time    0.0216
    SETDIJ:  cpu time    0.0060: real time    0.0061
    EDDIAG:  cpu time    0.0020: real time    0.0026
  RMM-DIIS:  cpu time    0.0150: real time    0.0141
    ORTHCH:  cpu time    0.0000: real time    0.0004
       DOS:  cpu time    0.0000: real time    0.0001
    CHARGE:  cpu time    0.0030: real time    0.0029
    MIXING:  cpu time    0.0010: real time    0.0006
    --------------------------------------------
      LOOP:  cpu time    0.0490: real time    0.0485

 eigenvalue-minimisations  :    72
 total energy-change (2. order) :-0.1395820E+00  (-0.5834481E-03)
 number of electron      19.0000001 magnetization       0.0062391
 augmentation part        1.1476276 magnetization      -0.9776704

 Broyden mixing:
  rms(total) = 0.35888E+00    rms(broyden)= 0.35880E+00
  rms(prec ) = 0.35905E+00
  weight for this iteration     100.00

 eigenvalues of (default mixing * dielectric matrix)
  average eigenvalue GAMMA=   1.0847
  2.4935  1.5103  0.9154  0.9154  0.4609  0.2127

 Free energy of the ion-electron system (eV)
  ---------------------------------------------------
  alpha Z        PSCENC =         9.23582037
  Ewald energy   TEWEN  =      -267.35072186
  -Hartree energ DENC   =      -703.07665963
  -exchange      EXHF   =         0.00000000
  -V(xc)+E(xc)   XCENC  =        69.04741426
  PAW double counting   =      2016.24052585    -2009.63420008
  entropy T*S    EENTRO =        -0.00000000
  eigenvalues    EBANDS =      -196.11063448
  atomic energy  EATOM  =      1049.23391391
  Solvation  Ediel_sol  =         0.00000000
  ---------------------------------------------------
  free energy    TOTEN  =       -32.41454165 eV

  energy without entropy =      -32.41454165  energy(sigma->0) =      -32.41454165


--------------------------------------------------------------------------------------------------------




--------------------------------------- Iteration      1(  12)  ---------------------------------------


    POTLOK:  cpu time    0.0210: real time    0.0216
    SETDIJ:  cpu time    0.0060: real time    0.0061
    EDDIAG:  cpu time    0.0030: real time    0.0026
  RMM-DIIS:  cpu time    0.0140: real time    0.0141
    ORTHCH:  cpu time    0.0000: real time    0.0004
       DOS:  cpu time    0.0010: real time    0.0001
    CHARGE:  cpu time    0.0020: real time    0.0029
    MIXING:  cpu time    0.0010: real time    0.0006
    --------------------------------------------
      LOOP:  cpu time    0.0480: real time    0.0484

 eigenvalue-minimisations  :    72
 total energy-change (2. order) : 0.1638200E+00  (-0.3733139E-03)
 number of electron      19.0000001 magnetization      -0.0319800
 augmentation part        1.1464250 magnetization      -0.2484414

 Broyden mixing:
  rms(total) = 0.87428E-01    rms(broyden)= 0.87395E-01
  rms(prec ) = 0.87784E-01
  weight for this iteration     100.00

 eigenvalues of (default mixing * dielectric matrix)
  average eigenvalue GAMMA=   1.0853
  2.5085  1.6483  0.9889  0.9889  0.6228  0.6228  0.2169

 Free energy of the ion-electron system (eV)
  ---------------------------------------------------
  alpha Z        PSCENC =         9.23582037
  Ewald energy   TEWEN  =      -267.35072186
  -Hartree energ DENC   =      -702.97031555
  -exchange      EXHF   =         0.00000000
  -V(xc)+E(xc)   XCENC  =        69.03586416
  PAW double counting   =      2017.26757305    -2010.65955760
  entropy T*S    EENTRO =        -0.02712779
  eigenvalues    EBANDS =      -196.01617031
  atomic energy  EATOM  =      1049.23391391
  Solvation  Ediel_sol  =         0.00000000
  ---------------------------------------------------
  free energy    TOTEN  =       -32.25072162 eV

  energy without entropy =      -32.22359384  energy(sigma->0) =      -32.23715773


--------------------------------------------------------------------------------------------------------




--------------------------------------- Iteration      1(  13)  ---------------------------------------


    POTLOK:  cpu time    0.0220: real time    0.0216
    SETDIJ:  cpu time    0.0060: real time    0.0061
    EDDIAG:  cpu time    0.0020: real time    0.0026
  RMM-DIIS:  cpu time    0.0150: real time    0.0143
    ORTHCH:  cpu time    0.0000: real time    0.0004
       DOS:  cpu time    0.0000: real time    0.0001
    CHARGE:  cpu time    0.0030: real time    0.0029
    MIXING:  cpu time    0.0010: real time    0.0007
    --------------------------------------------
      LOOP:  cpu time    0.0490: real time    0.0487

 eigenvalue-minimisations  :    72
 total energy-change (2. order) :-0.2288612E-01  (-0.4920578E-04)
 number of electron      19.0000001 magnetization       0.0122655
 augmentation part        1.1479233 magnetization       0.8355000

 Broyden mixing:
  rms(total) = 0.33083E+00    rms(broyden)= 0.33078E+00
  rms(prec ) = 0.33083E+00
  weight for this iteration     100.00

 eigenvalues of (default mixing * dielectric matrix)
  average eigenvalue GAMMA=   1.1072
  2.4514  2.0793  1.3078  1.0308  0.8503  0.4608  0.4608  0.2160

 Free energy of the ion-electron system (eV)
  ---------------------------------------------------
  alpha Z        PSCENC =         9.23582037
  Ewald energy   TEWEN  =      -267.35072186
  -Hartree energ DENC   =      -702.77436835
  -exchange      EXHF   =         0.00000000
  -V(xc)+E(xc)   XCENC  =        69.02647581
  PAW double counting   =      2016.40236301    -2009.79202518
  entropy T*S    EENTRO =        -0.01064133
  eigenvalues    EBANDS =      -196.24442412
  atomic energy  EATOM  =      1049.23391391
  Solvation  Ediel_sol  =         0.00000000
  ---------------------------------------------------
  free energy    TOTEN  =       -32.27360774 eV

  energy without entropy =      -32.26296642  energy(sigma->0) =      -32.26828708


--------------------------------------------------------------------------------------------------------




--------------------------------------- Iteration      1(  14)  ---------------------------------------


    POTLOK:  cpu time    0.0210: real time    0.0216
    SETDIJ:  cpu time    0.0060: real time    0.0061
    EDDIAG:  cpu time    0.0030: real time    0.0026
  RMM-DIIS:  cpu time    0.0140: real time    0.0143
    ORTHCH:  cpu time    0.0010: real time    0.0004
       DOS:  cpu time    0.0000: real time    0.0001
    CHARGE:  cpu time    0.0030: real time    0.0029
    MIXING:  cpu time    0.0000: real time    0.0007
    --------------------------------------------
      LOOP:  cpu time    0.0490: real time    0.0487

 eigenvalue-minimisations  :    72
 total energy-change (2. order) : 0.1956239E-01  (-0.2206254E-03)
 number of electron      19.0000001 magnetization      -0.0029688
 augmentation part        1.1473762 magnetization      -0.4126377

 Broyden mixing:
  rms(total) = 0.16635E+00    rms(broyden)= 0.16627E+00
  rms(prec ) = 0.16629E+00
  weight for this iteration     100.00

 eigenvalues of (default mixing * dielectric matrix)
  average eigenvalue GAMMA=   1.0642
  2.4628  2.1516  1.4142  0.2161  0.9241  0.9241  0.6860  0.3994  0.3994

 Free energy of the ion-electron system (eV)
  ---------------------------------------------------
  alpha Z        PSCENC =         9.23582037
  Ewald energy   TEWEN  =      -267.35072186
  -Hartree energ DENC   =      -702.88061396
  -exchange      EXHF   =         0.00000000
  -V(xc)+E(xc)   XCENC  =        69.03458160
  PAW double counting   =      2015.35573829    -2008.74435668
  entropy T*S    EENTRO =        -0.02426659
  eigenvalues    EBANDS =      -196.11414042
  atomic energy  EATOM  =      1049.23391391
  Solvation  Ediel_sol  =         0.00000000
  ---------------------------------------------------
  free energy    TOTEN  =       -32.25404535 eV

  energy without entropy =      -32.22977876  energy(sigma->0) =      -32.24191206


--------------------------------------------------------------------------------------------------------




--------------------------------------- Iteration      1(  15)  ---------------------------------------


    POTLOK:  cpu time    0.0220: real time    0.0216
    SETDIJ:  cpu time    0.0060: real time    0.0061
    EDDIAG:  cpu time    0.0030: real time    0.0026
  RMM-DIIS:  cpu time    0.0140: real time    0.0143
    ORTHCH:  cpu time    0.0010: real time    0.0004
       DOS:  cpu time    0.0000: real time    0.0001
    CHARGE:  cpu time    0.0030: real time    0.0029
    MIXING:  cpu time    0.0000: real time    0.0008
    --------------------------------------------
      LOOP:  cpu time    0.0480: real time    0.0488

 eigenvalue-minimisations  :    72
 total energy-change (2. order) : 0.2646081E-02  (-0.8238620E-04)
 number of electron      19.0000001 magnetization       0.0132842
 augmentation part        1.1472157 magnetization       0.1275312

 Broyden mixing:
  rms(total) = 0.46478E-01    rms(broyden)= 0.46450E-01
  rms(prec ) = 0.46488E-01
  weight for this iteration     100.00

 eigenvalues of (default mixing * dielectric matrix)
  average eigenvalue GAMMA=   1.0509
  2.4851  2.1430  1.4139  0.2161  0.9326  0.9326  0.7993  0.7993  0.3935  0.3935

 Free energy of the ion-electron system (eV)
  ---------------------------------------------------
  alpha Z        PSCENC =         9.23582037
  Ewald energy   TEWEN  =      -267.35072186
  -Hartree energ DENC   =      -702.86888266
  -exchange      EXHF   =         0.00000000
  -V(xc)+E(xc)   XCENC  =        69.03375256
  PAW double counting   =      2015.17594106    -2008.56398839
  entropy T*S    EENTRO =        -0.02790971
  eigenvalues    EBANDS =      -196.11932455
  atomic energy  EATOM  =      1049.23391391
  Solvation  Ediel_sol  =         0.00000000
  ---------------------------------------------------
  free energy    TOTEN  =       -32.25139927 eV

  energy without entropy =      -32.22348956  energy(sigma->0) =      -32.23744442


--------------------------------------------------------------------------------------------------------




--------------------------------------- Iteration      1(  16)  ---------------------------------------


    POTLOK:  cpu time    0.0220: real time    0.0216
    SETDIJ:  cpu time    0.0060: real time    0.0061
    EDDIAG:  cpu time    0.0030: real time    0.0026
  RMM-DIIS:  cpu time    0.0140: real time    0.0140
    ORTHCH:  cpu time    0.0000: real time    0.0004
       DOS:  cpu time    0.0000: real time    0.0001
    CHARGE:  cpu time    0.0030: real time    0.0028
    MIXING:  cpu time    0.0010: real time    0.0008
    --------------------------------------------
      LOOP:  cpu time    0.0490: real time    0.0485

 eigenvalue-minimisations  :    70
 total energy-change (2. order) :-0.4440117E-02  (-0.7011571E-05)
 number of electron      19.0000001 magnetization      -0.0049390
 augmentation part        1.1472857 magnetization      -0.4416111

 Broyden mixing:
  rms(total) = 0.17698E+00    rms(broyden)= 0.17696E+00
  rms(prec ) = 0.17697E+00
  weight for this iteration     100.00

 eigenvalues of (default mixing * dielectric matrix)
  average eigenvalue GAMMA=   1.1412
  2.5919  2.1522  2.1522  1.3216  0.2161  1.0358  0.8263  0.8263  0.6199  0.4054
  0.4054

 Free energy of the ion-electron system (eV)
  ---------------------------------------------------
  alpha Z        PSCENC =         9.23582037
  Ewald energy   TEWEN  =      -267.35072186
  -Hartree energ DENC   =      -702.86608965
  -exchange      EXHF   =         0.00000000
  -V(xc)+E(xc)   XCENC  =        69.03446849
  PAW double counting   =      2015.02932300    -2008.41719525
  entropy T*S    EENTRO =        -0.02371488
  eigenvalues    EBANDS =      -196.13164352
  atomic energy  EATOM  =      1049.23391391
  Solvation  Ediel_sol  =         0.00000000
  ---------------------------------------------------
  free energy    TOTEN  =       -32.25583939 eV

  energy without entropy =      -32.23212451  energy(sigma->0) =      -32.24398195


--------------------------------------------------------------------------------------------------------




--------------------------------------- Iteration      1(  17)  ---------------------------------------


    POTLOK:  cpu time    0.0210: real time    0.0216
    SETDIJ:  cpu time    0.0070: real time    0.0061
    EDDIAG:  cpu time    0.0020: real time    0.0026
  RMM-DIIS:  cpu time    0.0150: real time    0.0143
    ORTHCH:  cpu time    0.0000: real time    0.0004
       DOS:  cpu time    0.0000: real time    0.0001
    CHARGE:  cpu time    0.0030: real time    0.0028
    MIXING:  cpu time    0.0010: real time    0.0008
    --------------------------------------------
      LOOP:  cpu time    0.0490: real time    0.0489

 eigenvalue-minimisations  :    72
 total energy-change (2. order) : 0.4373383E-02  (-0.3330954E-04)
 number of electron      19.0000001 magnetization       0.0074688
 augmentation part        1.1472635 magnetization       0.1831625

 Broyden mixing:
  rms(total) = 0.71445E-01    rms(broyden)= 0.71398E-01
  rms(prec ) = 0.71401E-01
  weight for this iteration     100.00

 eigenvalues of (default mixing * dielectric matrix)
  average eigenvalue GAMMA=   1.1277
  2.7149  2.2348  2.0563  1.4571  0.2161  0.9985  0.9985  0.8255  0.6976  0.4672
  0.4672  0.3990

 Free energy of the ion-electron system (eV)
  ---------------------------------------------------
  alpha Z        PSCENC =         9.23582037
  Ewald energy   TEWEN  =      -267.35072186
  -Hartree energ DENC   =      -702.83228697
  -exchange      EXHF   =         0.00000000
  -V(xc)+E(xc)   XCENC  =        69.03272942
  PAW double counting   =      2014.88371463    -2008.27125520
  entropy T*S    EENTRO =        -0.02749871
  eigenvalues    EBANDS =      -196.15588159
  atomic energy  EATOM  =      1049.23391391
  Solvation  Ediel_sol  =         0.00000000
  ---------------------------------------------------
  free energy    TOTEN  =       -32.25146601 eV

  energy without entropy =      -32.22396729  energy(sigma->0) =      -32.23771665


--------------------------------------------------------------------------------------------------------




--------------------------------------- Iteration      1(  18)  ---------------------------------------


    POTLOK:  cpu time    0.0210: real time    0.0216
    SETDIJ:  cpu time    0.0060: real time    0.0061
    EDDIAG:  cpu time    0.0030: real time    0.0026
  RMM-DIIS:  cpu time    0.0140: real time    0.0144
    ORTHCH:  cpu time    0.0010: real time    0.0004
       DOS:  cpu time    0.0000: real time    0.0001
    CHARGE:  cpu time    0.0030: real time    0.0029
    MIXING:  cpu time    0.0010: real time    0.0009
    --------------------------------------------
      LOOP:  cpu time    0.0490: real time    0.0490

 eigenvalue-minimisations  :    72
 total energy-change (2. order) :-0.1247317E-02  (-0.3999740E-04)
 number of electron      19.0000001 magnetization      -0.0012451
 augmentation part        1.1472739 magnetization      -0.2577494

 Broyden mixing:
  rms(total) = 0.10411E+00    rms(broyden)= 0.10410E+00
  rms(prec ) = 0.10410E+00
  weight for this iteration     100.00

 eigenvalues of (default mixing * dielectric matrix)
  average eigenvalue GAMMA=   1.1216
  2.8573  2.2156  2.2156  1.4453  0.2161  1.0590  1.0590  0.8398  0.7110  0.7110
  0.4446  0.4446  0.3622

 Free energy of the ion-electron system (eV)
  ---------------------------------------------------
  alpha Z        PSCENC =         9.23582037
  Ewald energy   TEWEN  =      -267.35072186
  -Hartree energ DENC   =      -702.83885916
  -exchange      EXHF   =         0.00000000
  -V(xc)+E(xc)   XCENC  =        69.03345733
  PAW double counting   =      2014.89315398    -2008.28068574
  entropy T*S    EENTRO =        -0.02668687
  eigenvalues    EBANDS =      -196.15210529
  atomic energy  EATOM  =      1049.23391391
  Solvation  Ediel_sol  =         0.00000000
  ---------------------------------------------------
  free energy    TOTEN  =       -32.25271332 eV

  energy without entropy =      -32.22602646  energy(sigma->0) =      -32.23936989


--------------------------------------------------------------------------------------------------------




--------------------------------------- Iteration      1(  19)  ---------------------------------------


    POTLOK:  cpu time    0.0200: real time    0.0216
    SETDIJ:  cpu time    0.0060: real time    0.0061
    EDDIAG:  cpu time    0.0030: real time    0.0026
  RMM-DIIS:  cpu time    0.0150: real time    0.0141
    ORTHCH:  cpu time    0.0010: real time    0.0004
       DOS:  cpu time    0.0000: real time    0.0001
    CHARGE:  cpu time    0.0020: real time    0.0028
    MIXING:  cpu time    0.0010: real time    0.0009
    --------------------------------------------
      LOOP:  cpu time    0.0480: real time    0.0486

 eigenvalue-minimisations  :    70
 total energy-change (2. order) : 0.1580959E-02  (-0.1444877E-04)
 number of electron      19.0000001 magnetization       0.0032530
 augmentation part        1.1472706 magnetization       0.0495336

 Broyden mixing:
  rms(total) = 0.18873E-01    rms(broyden)= 0.18835E-01
  rms(prec ) = 0.18838E-01
  weight for this iteration     100.00

 eigenvalues of (default mixing * dielectric matrix)
  average eigenvalue GAMMA=   1.1668
  3.0387  2.3003  2.3003  1.7782  0.2161  1.3797  0.8022  0.8022  0.9275  0.8888
  0.6352  0.4499  0.4499  0.3660

 Free energy of the ion-electron system (eV)
  ---------------------------------------------------
  alpha Z        PSCENC =         9.23582037
  Ewald energy   TEWEN  =      -267.35072186
  -Hartree energ DENC   =      -702.82087664
  -exchange      EXHF   =         0.00000000
  -V(xc)+E(xc)   XCENC  =        69.03246690
  PAW double counting   =      2014.83547231    -2008.22287125
  entropy T*S    EENTRO =        -0.02816037
  eigenvalues    EBANDS =      -196.16617573
  atomic energy  EATOM  =      1049.23391391
  Solvation  Ediel_sol  =         0.00000000
  ---------------------------------------------------
  free energy    TOTEN  =       -32.25113236 eV

  energy without entropy =      -32.22297199  energy(sigma->0) =      -32.23705218


--------------------------------------------------------------------------------------------------------




--------------------------------------- Iteration      1(  20)  ---------------------------------------


    POTLOK:  cpu time    0.0210: real time    0.0215
    SETDIJ:  cpu time    0.0060: real time    0.0061
    EDDIAG:  cpu time    0.0030: real time    0.0026
  RMM-DIIS:  cpu time    0.0140: real time    0.0141
    ORTHCH:  cpu time    0.0000: real time    0.0004
       DOS:  cpu time    0.0000: real time    0.0001
    CHARGE:  cpu time    0.0030: real time    0.0028
    MIXING:  cpu time    0.0010: real time    0.0010
    --------------------------------------------
      LOOP:  cpu time    0.0480: real time    0.0488

 eigenvalue-minimisations  :    68
 total energy-change (2. order) :-0.3786778E-03  (-0.6929299E-05)
 number of electron      19.0000001 magnetization       0.0003039
 augmentation part        1.1472752 magnetization      -0.1127637

 Broyden mixing:
  rms(total) = 0.45903E-01    rms(broyden)= 0.45899E-01
  rms(prec ) = 0.45901E-01
  weight for this iteration     100.00

 eigenvalues of (default mixing * dielectric matrix)
  average eigenvalue GAMMA=   1.1912
  3.2439  2.4725  2.4725  1.8610  1.4060  0.2161  0.9142  0.9142  0.9162  0.9162
  0.6820  0.5954  0.4466  0.4466  0.3643

 Free energy of the ion-electron system (eV)
  ---------------------------------------------------
  alpha Z        PSCENC =         9.23582037
  Ewald energy   TEWEN  =      -267.35072186
  -Hartree energ DENC   =      -702.82145492
  -exchange      EXHF   =         0.00000000
  -V(xc)+E(xc)   XCENC  =        69.03265157
  PAW double counting   =      2014.84118972    -2008.22858916
  entropy T*S    EENTRO =        -0.02791577
  eigenvalues    EBANDS =      -196.16640490
  atomic energy  EATOM  =      1049.23391391
  Solvation  Ediel_sol  =         0.00000000
  ---------------------------------------------------
  free energy    TOTEN  =       -32.25151104 eV

  energy without entropy =      -32.22359527  energy(sigma->0) =      -32.23755316


--------------------------------------------------------------------------------------------------------




--------------------------------------- Iteration      1(  21)  ---------------------------------------


    POTLOK:  cpu time    0.0220: real time    0.0216
    SETDIJ:  cpu time    0.0060: real time    0.0061
    EDDIAG:  cpu time    0.0020: real time    0.0026
  RMM-DIIS:  cpu time    0.0140: real time    0.0136
    ORTHCH:  cpu time    0.0010: real time    0.0004
       DOS:  cpu time    0.0000: real time    0.0001
    CHARGE:  cpu time    0.0020: real time    0.0028
    MIXING:  cpu time    0.0010: real time    0.0010
    --------------------------------------------
      LOOP:  cpu time    0.0480: real time    0.0483

 eigenvalue-minimisations  :    60
 total energy-change (2. order) : 0.3158854E-03  (-0.1365544E-05)
 number of electron      19.0000001 magnetization       0.0010997
 augmentation part        1.1472827 magnetization      -0.0081069

 Broyden mixing:
  rms(total) = 0.37442E-02    rms(broyden)= 0.37215E-02
  rms(prec ) = 0.37265E-02
  weight for this iteration     100.00

 eigenvalues of (default mixing * dielectric matrix)
  average eigenvalue GAMMA=   1.1288
  3.2395  2.4748  2.4748  1.8369  1.4108  0.2161  0.8979  0.8979  0.9297  0.9297
  0.6438  0.5750  0.4448  0.4448  0.3626  0.2811

 Free energy of the ion-electron system (eV)
  ---------------------------------------------------
  alpha Z        PSCENC =         9.23582037
  Ewald energy   TEWEN  =      -267.35072186
  -Hartree energ DENC   =      -702.81380275
  -exchange      EXHF   =         0.00000000
  -V(xc)+E(xc)   XCENC  =        69.03224807
  PAW double counting   =      2014.82817180    -2008.21552839
  entropy T*S    EENTRO =        -0.02820754
  eigenvalues    EBANDS =      -196.17308877
  atomic energy  EATOM  =      1049.23391391
  Solvation  Ediel_sol  =         0.00000000
  ---------------------------------------------------
  free energy    TOTEN  =       -32.25119516 eV

  energy without entropy =      -32.22298762  energy(sigma->0) =      -32.23709139


--------------------------------------------------------------------------------------------------------




--------------------------------------- Iteration      1(  22)  ---------------------------------------


    POTLOK:  cpu time    0.0220: real time    0.0216
    SETDIJ:  cpu time    0.0060: real time    0.0061
    EDDIAG:  cpu time    0.0030: real time    0.0026
  RMM-DIIS:  cpu time    0.0120: real time    0.0127
    ORTHCH:  cpu time    0.0010: real time    0.0004
       DOS:  cpu time    0.0000: real time    0.0001
    CHARGE:  cpu time    0.0030: real time    0.0028
    MIXING:  cpu time    0.0010: real time    0.0011
    --------------------------------------------
      LOOP:  cpu time    0.0480: real time    0.0474

 eigenvalue-minimisations  :    54
 total energy-change (2. order) :-0.5913941E-04  (-0.6413239E-06)
 number of electron      19.0000001 magnetization       0.0003342
 augmentation part        1.1472824 magnetization      -0.0377498

 Broyden mixing:
  rms(total) = 0.15452E-01    rms(broyden)= 0.15452E-01
  rms(prec ) = 0.15452E-01
  weight for this iteration     100.00

 eigenvalues of (default mixing * dielectric matrix)
  average eigenvalue GAMMA=   1.1412
  3.2886  2.4823  2.4823  1.8145  1.4722  0.2161  0.7483  0.7483  0.9014  0.9014
  0.9062  0.9062  0.6719  0.6007  0.4474  0.4474  0.3648

 Free energy of the ion-electron system (eV)
  ---------------------------------------------------
  alpha Z        PSCENC =         9.23582037
  Ewald energy   TEWEN  =      -267.35072186
  -Hartree energ DENC   =      -702.81232885
  -exchange      EXHF   =         0.00000000
  -V(xc)+E(xc)   XCENC  =        69.03222361
  PAW double counting   =      2014.82818662    -2008.21553967
  entropy T*S    EENTRO =        -0.02817621
  eigenvalues    EBANDS =      -196.17463220
  atomic energy  EATOM  =      1049.23391391
  Solvation  Ediel_sol  =         0.00000000
  ---------------------------------------------------
  free energy    TOTEN  =       -32.25125430 eV

  energy without entropy =      -32.22307808  energy(sigma->0) =      -32.23716619


--------------------------------------------------------------------------------------------------------




--------------------------------------- Iteration      1(  23)  ---------------------------------------


    POTLOK:  cpu time    0.0210: real time    0.0216
    SETDIJ:  cpu time    0.0070: real time    0.0061
    EDDIAG:  cpu time    0.0020: real time    0.0026
  RMM-DIIS:  cpu time    0.0130: real time    0.0127
    ORTHCH:  cpu time    0.0000: real time    0.0004
       DOS:  cpu time    0.0000: real time    0.0001
    CHARGE:  cpu time    0.0030: real time    0.0028
    MIXING:  cpu time    0.0010: real time    0.0011
    --------------------------------------------
      LOOP:  cpu time    0.0470: real time    0.0475

 eigenvalue-minimisations  :    52
 total energy-change (2. order) : 0.3120657E-04  (-0.2798531E-07)
 number of electron      19.0000001 magnetization       0.0002512
 augmentation part        1.1472881 magnetization      -0.0109142

 Broyden mixing:
  rms(total) = 0.45289E-02    rms(broyden)= 0.45272E-02
  rms(prec ) = 0.45280E-02
  weight for this iteration     100.00

 eigenvalues of (default mixing * dielectric matrix)
  average eigenvalue GAMMA=   1.1622
  3.3323  2.5118  2.4827  1.8947  1.4670  1.1478  1.1478  0.2161  0.9054  0.9054
  0.8691  0.8691  0.6649  0.6231  0.6231  0.4474  0.4474  0.3648

 Free energy of the ion-electron system (eV)
  ---------------------------------------------------
  alpha Z        PSCENC =         9.23582037
  Ewald energy   TEWEN  =      -267.35072186
  -Hartree energ DENC   =      -702.80956669
  -exchange      EXHF   =         0.00000000
  -V(xc)+E(xc)   XCENC  =        69.03209318
  PAW double counting   =      2014.82896728    -2008.21630664
  entropy T*S    EENTRO =        -0.02820662
  eigenvalues    EBANDS =      -196.17721601
  atomic energy  EATOM  =      1049.23391391
  Solvation  Ediel_sol  =         0.00000000
  ---------------------------------------------------
  free energy    TOTEN  =       -32.25122309 eV

  energy without entropy =      -32.22301647  energy(sigma->0) =      -32.23711978


--------------------------------------------------------------------------------------------------------




--------------------------------------- Iteration      1(  24)  ---------------------------------------


    POTLOK:  cpu time    0.0220: real time    0.0216
    SETDIJ:  cpu time    0.0060: real time    0.0061
    EDDIAG:  cpu time    0.0030: real time    0.0026
  RMM-DIIS:  cpu time    0.0120: real time    0.0127
    ORTHCH:  cpu time    0.0010: real time    0.0005
       DOS:  cpu time    0.0000: real time    0.0001
    CHARGE:  cpu time    0.0030: real time    0.0034
    MIXING:  cpu time    0.0020: real time    0.0012
    --------------------------------------------
      LOOP:  cpu time    0.0490: real time    0.0482

 eigenvalue-minimisations  :    52
 total energy-change (2. order) :-0.2850759E-05  (-0.8769174E-07)
 number of electron      19.0000001 magnetization       0.0000403
 augmentation part        1.1472894 magnetization      -0.0086295

 Broyden mixing:
  rms(total) = 0.35149E-02    rms(broyden)= 0.35147E-02
  rms(prec ) = 0.35150E-02
  weight for this iteration     100.00

 eigenvalues of (default mixing * dielectric matrix)
  average eigenvalue GAMMA=   1.1759
  3.4909  2.6941  2.4825  1.8098  1.5292  1.2185  1.2185  0.2161  1.0038  1.0038
  0.8980  0.7861  0.7861  0.6768  0.6768  0.4475  0.4475  0.3648  0.5914

 Free energy of the ion-electron system (eV)
  ---------------------------------------------------
  alpha Z        PSCENC =         9.23582037
  Ewald energy   TEWEN  =      -267.35072186
  -Hartree energ DENC   =      -702.80804257
  -exchange      EXHF   =         0.00000000
  -V(xc)+E(xc)   XCENC  =        69.03203631
  PAW double counting   =      2014.83005908    -2008.21739480
  entropy T*S    EENTRO =        -0.02820776
  eigenvalues    EBANDS =      -196.17868862
  atomic energy  EATOM  =      1049.23391391
  Solvation  Ediel_sol  =         0.00000000
  ---------------------------------------------------
  free energy    TOTEN  =       -32.25122594 eV

  energy without entropy =      -32.22301818  energy(sigma->0) =      -32.23712206


--------------------------------------------------------------------------------------------------------




--------------------------------------- Iteration      1(  25)  ---------------------------------------


    POTLOK:  cpu time    0.0210: real time    0.0216
    SETDIJ:  cpu time    0.0060: real time    0.0061
    EDDIAG:  cpu time    0.0030: real time    0.0026
  RMM-DIIS:  cpu time    0.0120: real time    0.0125
    ORTHCH:  cpu time    0.0010: real time    0.0004
       DOS:  cpu time    0.0000: real time    0.0001
    --------------------------------------------
      LOOP:  cpu time    0.0430: real time    0.0434

 eigenvalue-minimisations  :    45
 total energy-change (2. order) : 0.8434083E-06  (-0.2768225E-07)
 number of electron      19.0000001 magnetization       0.0000403
 augmentation part        1.1472894 magnetization      -0.0086295

 Free energy of the ion-electron system (eV)
  ---------------------------------------------------
  alpha Z        PSCENC =         9.23582037
  Ewald energy   TEWEN  =      -267.35072186
  -Hartree energ DENC   =      -702.80687672
  -exchange      EXHF   =         0.00000000
  -V(xc)+E(xc)   XCENC  =        69.03199085
  PAW double counting   =      2014.83519541    -2008.22252899
  entropy T*S    EENTRO =        -0.02820944
  eigenvalues    EBANDS =      -196.17980862
  atomic energy  EATOM  =      1049.23391391
  Solvation  Ediel_sol  =         0.00000000
  ---------------------------------------------------
  free energy    TOTEN  =       -32.25122510 eV

  energy without entropy =      -32.22301565  energy(sigma->0) =      -32.23712037


--------------------------------------------------------------------------------------------------------




 average (electrostatic) potential at core
  the test charge radii are     0.6768  0.6557  0.5531
  (the norm of the test charge is              1.0000)
       1-123.4218       2-122.3034       3-122.7353       4 -39.4307       5 -36.7470
       6 -36.8337
 
 
 
 E-fermi :  -2.2194     XC(G=0):  -7.2510     alpha+bet : -5.3200


 spin component 1

 k-point     1 :       0.0000    0.0000    0.0000
  band No.  band energies     occupation 
      1     -24.5204      1.00000
      2     -21.6699      1.00000
      3     -12.0657      1.00000
      4      -9.1916      1.00000
      5      -7.8374      1.00000
      6      -7.2558      1.00000
      7      -6.0345      1.00000
      8      -4.8621      1.00000
      9      -3.5428      1.00000
     10      -2.2194      0.50063
     11       3.1413      0.00000
     12       6.5256      0.00000
     13       7.3326      0.00000
     14       8.9783      0.00000
     15      10.3285      0.00000
     16      11.3464      0.00000
     17      11.7922      0.00000
     18      12.6495      0.00000

 spin component 2

 k-point     1 :       0.0000    0.0000    0.0000
  band No.  band energies     occupation 
      1     -24.5204      1.00000
      2     -21.6699      1.00000
      3     -12.0657      1.00000
      4      -9.1916      1.00000
      5      -7.8374      1.00000
      6      -7.2558      1.00000
      7      -6.0345      1.00000
      8      -4.8621      1.00000
      9      -3.5428      1.00000
     10      -2.2193      0.49937
     11       3.1413      0.00000
     12       6.5256      0.00000
     13       7.3326      0.00000
     14       8.9784      0.00000
[...]

 eigenvalue-minimisations  :    57
 total energy-change (2. order) : 0.2440406E-05  (-0.3617968E-06)
 number of electron      18.9999997 magnetization       1.0000000
 augmentation part        1.1512269 magnetization       0.0125193

 Broyden mixing:
  rms(total) = 0.37056E-03    rms(broyden)= 0.37039E-03
  rms(prec ) = 0.56607E-03
  weight for this iteration     100.00

 eigenvalues of (default mixing * dielectric matrix)
  average eigenvalue GAMMA=   1.3623
  2.3145  2.3145  2.1988  1.5064  0.8899  0.8899  0.8696  0.6385  0.6385

 Free energy of the ion-electron system (eV)
  ---------------------------------------------------
  alpha Z        PSCENC =        10.02929316
  Ewald energy   TEWEN  =      -302.90056348
  -Hartree energ DENC   =      -677.75299557
  -exchange      EXHF   =         0.00000000
  -V(xc)+E(xc)   XCENC  =        69.80152538
  PAW double counting   =      2024.66859699    -2018.05562010
  entropy T*S    EENTRO =        -0.00000000
  eigenvalues    EBANDS =      -188.11190806
  atomic energy  EATOM  =      1049.23391391
  Solvation  Ediel_sol  =         0.00000000
  ---------------------------------------------------
  free energy    TOTEN  =       -33.08775778 eV

  energy without entropy =      -33.08775778  energy(sigma->0) =      -33.08775778


--------------------------------------------------------------------------------------------------------




--------------------------------------- Iteration     30(  11)  ---------------------------------------


    POTLOK:  cpu time    0.0210: real time    0.0218
    SETDIJ:  cpu time    0.0060: real time    0.0061
    EDDIAG:  cpu time    0.0030: real time    0.0026
  RMM-DIIS:  cpu time    0.0130: real time    0.0132
    ORTHCH:  cpu time    0.0010: real time    0.0004
       DOS:  cpu time    0.0000: real time    0.0001
    --------------------------------------------
      LOOP:  cpu time    0.0440: real time    0.0442

 eigenvalue-minimisations  :    54
 total energy-change (2. order) :-0.9499533E-06  (-0.1633136E-06)
 number of electron      18.9999997 magnetization       1.0000000
 augmentation part        1.1512269 magnetization       0.0125193

 Free energy of the ion-electron system (eV)
  ---------------------------------------------------
  alpha Z        PSCENC =        10.02929316
  Ewald energy   TEWEN  =      -302.90056348
  -Hartree energ DENC   =      -677.74637738
  -exchange      EXHF   =         0.00000000
  -V(xc)+E(xc)   XCENC  =        69.80137429
  PAW double counting   =      2024.72333136    -2018.11037037
  entropy T*S    EENTRO =        -0.00000000
  eigenvalues    EBANDS =      -188.11836021
  atomic energy  EATOM  =      1049.23391391
  Solvation  Ediel_sol  =         0.00000000
  ---------------------------------------------------
  free energy    TOTEN  =       -33.08775873 eV

  energy without entropy =      -33.08775873  energy(sigma->0) =      -33.08775873


--------------------------------------------------------------------------------------------------------




 average (electrostatic) potential at core
  the test charge radii are     0.6768  0.6557  0.5531
  (the norm of the test charge is              1.0000)
       1-122.8390       2-121.7419       3-122.0258       4 -38.9033       5 -33.7421
       6 -36.3158
 
 
 
 E-fermi :  -2.3820     XC(G=0):  -7.3675     alpha+bet : -5.7770


 spin component 1

 k-point     1 :       0.0000    0.0000    0.0000
  band No.  band energies     occupation 
      1     -24.1748      1.00000
      2     -21.1059      1.00000
      3     -11.5840      1.00000
      4      -8.8193      1.00000
      5      -7.2621      1.00000
      6      -6.7226      1.00000
      7      -5.6128      1.00000
      8      -4.6382      1.00000
      9      -3.0706      1.00000
     10      -2.7246      1.00000
     11       3.7790      0.00000
     12       7.1860      0.00000
     13       8.1751      0.00000
     14       9.6512      0.00000
     15      11.0717      0.00000
     16      12.1043      0.00000
     17      12.5828      0.00000
     18      13.3151      0.00000

 spin component 2

 k-point     1 :       0.0000    0.0000    0.0000
  band No.  band energies     occupation 
      1     -24.1440      1.00000
      2     -21.0723      1.00000
      3     -11.5650      1.00000
      4      -8.7863      1.00000
      5      -7.2296      1.00000
      6      -6.6809      1.00000
      7      -5.5774      1.00000
      8      -4.3738      1.00000
      9      -2.9743      1.00000
     10       1.4251      0.00000
     11       3.8307      0.00000
     12       8.0423      0.00000
     13       8.4049      0.00000
     14      10.7552      0.00000
     15      11.9401      0.00000
     16      12.1761      0.00000
     17      12.7842      0.00000
     18      13.8055      0.00000


--------------------------------------------------------------------------------------------------------


 soft charge-density along one line, spin component           1
         0         1         2         3         4         5         6         7         8         9
 total charge-density along one line
 
 soft charge-density along one line, spin component           2
         0         1         2         3         4         5         6         7         8         9
 total charge-density along one line
 
 pseudopotential strength for first ion, spin component:           1
 32.803  33.831  37.311   0.058  -0.040  -0.051   0.069  -0.048
 33.831  34.891  38.447   0.060  -0.042  -0.052   0.071  -0.050
 37.311  38.447  27.836   0.007  -0.005  -0.008   0.009  -0.006
  0.058   0.060   0.007  -5.785   0.036  -0.007  -6.466   0.042
 -0.040  -0.042  -0.005   0.036  -5.879   0.060   0.042  -6.574
 -0.051  -0.052  -0.008  -0.007   0.060  -5.772  -0.008   0.070
  0.069   0.071   0.009  -6.466   0.042  -0.008  -7.210   0.048
 -0.048  -0.050  -0.006   0.042  -6.574   0.070   0.048  -7.336
 -0.060  -0.062  -0.010  -0.008   0.070  -6.450  -0.009   0.081
 -0.320  -0.331  -0.129  -4.285  -0.063   0.008  -5.920  -0.072
  0.226   0.233   0.095  -0.063  -4.131  -0.095  -0.072  -5.744
  0.285   0.295   0.150   0.008  -0.095  -4.305   0.009  -0.109
 -0.002  -0.002   0.001  -0.022  -0.001   0.023  -0.026  -0.001
 -0.003  -0.004   0.002  -0.019   0.029  -0.001  -0.023   0.034
  0.002   0.002  -0.001  -0.010  -0.021   0.012  -0.012  -0.025
  0.000   0.000  -0.000  -0.001  -0.024  -0.014  -0.001  -0.028
  0.000   0.000   0.000  -0.023   0.003  -0.023  -0.027   0.003
  0.002   0.002   0.009   0.202   0.014  -0.230   0.232   0.016
 -0.077  -0.080   0.032   0.195  -0.297   0.014   0.223  -0.340
  0.106   0.111  -0.032   0.092   0.214  -0.108   0.106   0.246
 -0.104  -0.108   0.024   0.014   0.227   0.121   0.016   0.261
 -0.009  -0.009  -0.001   0.226  -0.037   0.213   0.259  -0.042
 pseudopotential strength for first ion, spin component:           2
 32.789  33.817  37.284   0.061  -0.039  -0.049   0.073  -0.046
 33.817  34.877  38.419   0.063  -0.040  -0.051   0.076  -0.048
 37.284  38.419  27.775   0.007  -0.005  -0.008   0.009  -0.006
  0.061   0.063   0.007  -5.763   0.041  -0.000  -6.441   0.047
 -0.039  -0.040  -0.005   0.041  -5.868   0.062   0.047  -6.562
 -0.049  -0.051  -0.008  -0.000   0.062  -5.760  -0.000   0.072
  0.073   0.076   0.009  -6.441   0.047  -0.000  -7.181   0.055
 -0.046  -0.048  -0.006   0.047  -6.562   0.072   0.055  -7.322
 -0.058  -0.060  -0.010  -0.000   0.072  -6.437  -0.000   0.083
 -0.340  -0.351  -0.142  -4.323  -0.071  -0.004  -5.964  -0.081
  0.218   0.226   0.090  -0.071  -4.149  -0.098  -0.081  -5.765
  0.276   0.285   0.143  -0.004  -0.098  -4.325  -0.004  -0.112
 -0.002  -0.002   0.001  -0.021  -0.001   0.025  -0.025  -0.001
 -0.004  -0.004   0.002  -0.019   0.030  -0.001  -0.022   0.036
  0.002   0.002  -0.001  -0.011  -0.020   0.012  -0.013  -0.024
  0.000   0.000  -0.000  -0.001  -0.023  -0.013  -0.001  -0.027
  0.001   0.001  -0.000  -0.025   0.003  -0.022  -0.029   0.003
 -0.007  -0.007   0.008   0.195   0.014  -0.245   0.225   0.016
 -0.083  -0.086   0.031   0.190  -0.311   0.014   0.218  -0.356
  0.111   0.115  -0.030   0.098   0.208  -0.104   0.113   0.239
 -0.105  -0.109   0.024   0.014   0.221   0.116   0.016   0.254
 -0.003  -0.003   0.001   0.237  -0.037   0.206   0.272  -0.042
 total augmentation occupancy for first ion, spin component:           1
 24.166 -23.281   0.014   5.579  -4.347  -2.009  -2.841   2.499  -0.079   0.068  -0.055  -0.052   0.113   0.313  -0.474   0.302
-23.281  24.190  -0.021  -5.702   4.406   2.167   3.097  -2.652  -0.217  -0.073   0.057   0.053  -0.116  -0.351   0.500  -0.334
  0.014  -0.021   0.000   0.006  -0.005  -0.002  -0.003   0.003   0.001   0.000  -0.000  -0.000   0.000   0.001  -0.000   0.000
  5.579  -5.702   0.006   3.530  -2.001  -0.198  -1.495   1.432   0.080   0.051  -0.021  -0.004   0.034   0.239  -0.035   0.086
 -4.347   4.406  -0.005  -2.001   7.657  -1.476   1.470  -4.268   0.708  -0.022   0.099  -0.026   0.057  -0.463   0.237   0.155
 -2.009   2.167  -0.002  -0.198  -1.476   3.266   0.068   0.710  -1.242  -0.004  -0.028   0.051  -0.170   0.064  -0.040  -0.034
 -2.841   3.097  -0.003  -1.495   1.470   0.068   1.151  -1.011  -0.026  -0.008   0.012   0.001  -0.001  -0.115   0.032  -0.071
  2.499  -2.652   0.003   1.432  -4.268   0.710  -1.011   2.747  -0.009   0.014  -0.043   0.021  -0.028   0.270  -0.093  -0.053
 -0.079  -0.217   0.001   0.080   0.708  -1.242  -0.026  -0.009   0.943   0.001   0.023  -0.008   0.065  -0.022   0.054   0.003
  0.068  -0.073   0.000   0.051  -0.022  -0.004  -0.008   0.014   0.001   0.001  -0.000  -0.000   0.001   0.004  -0.001  -0.000
 -0.055   0.057  -0.000  -0.021   0.099  -0.028   0.012  -0.043   0.023  -0.000   0.002  -0.000   0.001  -0.006   0.005   0.003
 -0.052   0.053  -0.000  -0.004  -0.026   0.051   0.001   0.021  -0.008  -0.000  -0.000   0.001  -0.003   0.001   0.000  -0.001
  0.113  -0.116   0.000   0.034   0.057  -0.170  -0.001  -0.028   0.065   0.001   0.001  -0.003   0.010  -0.001   0.002  -0.001
  0.313  -0.351   0.001   0.239  -0.463   0.064  -0.115   0.270  -0.022   0.004  -0.006   0.001  -0.001   0.035  -0.011  -0.008
 -0.474   0.500  -0.000  -0.035   0.237  -0.040   0.032  -0.093   0.054  -0.001   0.005   0.000   0.002  -0.011   0.025   0.004
  0.302  -0.334   0.000   0.086   0.155  -0.034  -0.071  -0.053   0.003  -0.000   0.003  -0.001  -0.001  -0.008   0.004   0.028
 -0.061   0.052   0.000   0.123  -0.176   0.098  -0.035   0.113  -0.017   0.002  -0.002   0.002  -0.003   0.017   0.002  -0.007
 -0.011   0.009  -0.000  -0.004   0.000   0.000   0.000   0.001   0.002  -0.000   0.000   0.000  -0.000  -0.000   0.000  -0.000
  0.005  -0.006   0.000   0.004  -0.007  -0.000  -0.003   0.006   0.002   0.000  -0.000   0.000   0.000   0.001   0.000   0.000
 -0.023   0.021  -0.000  -0.004   0.002   0.003   0.001  -0.000   0.000  -0.000   0.000   0.000  -0.000  -0.000   0.001  -0.000
  0.020  -0.018   0.000   0.004  -0.001  -0.002  -0.003  -0.000  -0.002   0.000  -0.000  -0.000   0.000   0.000  -0.000   0.001
 -0.003   0.002   0.000  -0.001  -0.003  -0.002  -0.001   0.001  -0.000  -0.000  -0.000  -0.000   0.000   0.000   0.000  -0.000
 total augmentation occupancy for first ion, spin component:           2
  0.823  -0.713   0.000  -0.096  -0.028  -0.074   0.235   0.075   0.127   0.004   0.001   0.002   0.006   0.009   0.006  -0.019
 -0.713   0.617  -0.000   0.076   0.022   0.063  -0.202  -0.064  -0.110  -0.004  -0.001  -0.001  -0.005  -0.008  -0.006   0.017
  0.000  -0.000  -0.000   0.000   0.000   0.000   0.000   0.000   0.000   0.000   0.000   0.000  -0.000   0.000   0.000  -0.000
 -0.096   0.076   0.000  -0.010  -0.004   0.004  -0.021  -0.006  -0.013  -0.001  -0.000  -0.000  -0.001  -0.002  -0.001   0.003
 -0.028   0.022   0.000  -0.004  -0.016   0.008  -0.006   0.008  -0.010  -0.000  -0.000  -0.000  -0.001   0.000  -0.001   0.001
 -0.074   0.063   0.000   0.004   0.008  -0.004  -0.020  -0.013  -0.006  -0.000  -0.000  -0.000   0.000  -0.001  -0.001   0.002
  0.235  -0.202   0.000  -0.021  -0.006  -0.020   0.061   0.018   0.033   0.001   0.000   0.000   0.001   0.003   0.002  -0.005
  0.075  -0.064   0.000  -0.006   0.008  -0.013   0.018   0.000   0.016   0.000   0.000   0.000   0.001   0.000   0.001  -0.001
  0.127  -0.110   0.000  -0.013  -0.010  -0.006   0.033   0.016   0.019   0.001   0.000   0.000   0.000   0.002   0.001  -0.003
  0.004  -0.004   0.000  -0.001  -0.000  -0.000   0.001   0.000   0.001   0.000   0.000   0.000   0.000   0.000   0.000  -0.000
  0.001  -0.001   0.000  -0.000  -0.000  -0.000   0.000   0.000   0.000   0.000  -0.000  -0.000  -0.000   0.000   0.000  -0.000
  0.002  -0.001   0.000  -0.000  -0.000  -0.000   0.000   0.000   0.000   0.000  -0.000  -0.000   0.000   0.000   0.000  -0.000
  0.006  -0.005  -0.000  -0.001  -0.001   0.000   0.001   0.001   0.000   0.000  -0.000   0.000  -0.000   0.000   0.000  -0.000
  0.009  -0.008   0.000  -0.002   0.000  -0.001   0.003   0.000   0.002   0.000   0.000   0.000   0.000   0.000   0.000  -0.000
  0.006  -0.006   0.000  -0.001  -0.001  -0.001   0.002   0.001   0.001   0.000   0.000   0.000   0.000   0.000   0.000  -0.000
 -0.019   0.017  -0.000   0.003   0.001   0.002  -0.005  -0.001  -0.003  -0.000  -0.000  -0.000  -0.000  -0.000  -0.000   0.000
  0.017  -0.016   0.000  -0.003  -0.001  -0.002   0.005   0.001   0.003   0.000   0.000   0.000   0.000   0.000   0.000  -0.000
  0.000  -0.000   0.000  -0.000   0.000  -0.000  -0.000  -0.000   0.000  -0.000   0.000  -0.000   0.000  -0.000  -0.000   0.000
  0.000  -0.000   0.000  -0.000  -0.000   0.000  -0.000   0.000  -0.000  -0.000  -0.000   0.000  -0.000   0.000  -0.000  -0.000
 -0.000   0.000  -0.000   0.000  -0.000   0.000  -0.000   0.000  -0.000   0.000  -0.000   0.000  -0.000   0.000  -0.000   0.000
 -0.001   0.001   0.000   0.000  -0.000   0.000  -0.000  -0.000  -0.000  -0.000  -0.000  -0.000  -0.000   0.000  -0.000   0.000
  0.000  -0.000  -0.000   0.000   0.000  -0.000  -0.000  -0.000  -0.000   0.000  -0.000  -0.000   0.000   0.000  -0.000   0.000


------------------------ aborting loop because EDIFF is reached ----------------------------------------


    CHARGE:  cpu time    0.0030: real time    0.0029
    FORLOC:  cpu time    0.0010: real time    0.0012
    FORNL :  cpu time    0.0290: real time    0.0291
    STRESS:  cpu time    0.0850: real time    0.0851
    FORCOR:  cpu time    0.0210: real time    0.0229
    FORHAR:  cpu time    0.0030: real time    0.0028
    MIXING:  cpu time    0.0000: real time    0.0007
    OFIELD:  cpu time    0.0000: real time    0.0000

 ---------------------------------------------------------------------------------------------

         DFTD3 V3.0 Rev 1        
 Edisp (eV)   -0.31327

 E6    (eV) :    -0.1904
 E8    (eV) :    -0.1229
 % E8        : 39.22
    FORVDW:  cpu time    0.0800: real time    0.0798

  FORCE on cell =-STRESS in cart. coord.  units (eV):
  Direction    XX          YY          ZZ          XY          YZ          ZX
  --------------------------------------------------------------------------------------
  Alpha Z    10.02929    10.02929    10.02929
  Ewald     126.67971  -660.69105   231.11033  -179.32953  -190.52542    69.68378
  Hartree   402.09463  -192.76024   468.39983   -95.87839   -85.65790    43.42195
  E(xc)     -86.35019   -87.39910   -86.36788    -0.38033    -0.42617    -0.03553
  Local    -918.43320   453.95986 -1083.27196   264.09419   267.35168  -113.05836
  n-local    65.44489    66.76994    65.89803    -0.06841    -0.84787     0.33561
  augment    35.76351    35.66876    35.02004     0.61321     0.19608    -0.01190
  Kinetic   366.08011   374.75418   360.79574    10.81848     9.72503    -0.27014
  Fock        0.00000     0.00000     0.00000     0.00000     0.00000     0.00000
  vdW        -0.27638    -0.32154    -0.32278     0.00254     0.00579    -0.00162
  -------------------------------------------------------------------------------------
  Total       1.03237     0.01011     1.29065    -0.12823    -0.17878     0.06379
  in kB      25.77074     0.25237    32.21799    -3.20091    -4.46287     1.59233
  external pressure =       19.41 kB  Pullay stress =        0.00 kB


 VOLUME and BASIS-vectors are now :
 -----------------------------------------------------------------------------
  energy-cutoff  :      520.00
  volume of cell :       64.18
      direct lattice vectors                 reciprocal lattice vectors
     3.541544557 -0.447177110  0.010347154     0.306508752  0.195190904  0.171110169
    -3.400686496  6.000298768 -0.753102929     0.022854325  0.181315437  0.013579022
    -1.821159881 -0.016140905  3.280646635     0.004279695  0.041007012  0.307395465

  length of vectors
     3.569679577  6.937969297  3.752269471     0.401653823  0.183253916  0.310148130


 FORCES acting on ions
    electron-ion (+dipol)            ewald-force                    non-local-force                 convergence-correction
 -----------------------------------------------------------------------------------------------
   -.950E+01 -.219E+03 0.500E+02   -.234E+02 0.253E+03 -.728E+02   0.328E+02 -.335E+02 0.229E+02   0.922E-03 -.485E-03 -.216E-02
   -.596E+02 0.215E+03 -.277E+02   0.916E+02 -.245E+03 0.586E+02   -.320E+02 0.296E+02 -.309E+02   0.190E-02 0.121E-02 0.897E-03
   0.104E+03 -.364E+01 -.405E+02   -.112E+03 -.176E+01 0.504E+02   0.723E+01 0.533E+01 -.967E+01   0.511E-03 0.293E-03 -.751E-04
   -.520E+02 -.559E+01 0.323E+02   0.564E+02 0.432E+01 -.363E+02   -.414E+01 0.123E+01 0.386E+01   -.271E-03 -.588E-04 0.322E-04
   0.372E+00 0.204E+01 -.108E+01   -.379E+00 -.199E+01 0.106E+01   0.265E-03 -.534E-01 0.232E-01   0.170E-04 -.814E-04 -.603E-06
   0.959E+01 0.840E+01 0.114E+01   -.126E+02 -.874E+01 -.925E+00   0.310E+01 0.272E+00 -.334E+00   -.206E-03 0.156E-03 0.191E-03
 -----------------------------------------------------------------------------------------------
   -.694E+01 -.290E+01 0.141E+02   -.195E-13 -.266E-13 0.433E-14   0.694E+01 0.290E+01 -.141E+02   0.287E-02 0.103E-02 -.111E-02
 
 
 POSITION                                       TOTAL-FORCE (eV/Angst)
 -----------------------------------------------------------------------------------
     -1.20380      3.98050      0.51013        -0.117481      0.311524      0.070625
     -0.33618      2.64509      2.08979        -0.069385     -0.123386      0.010560
     -1.22927      3.28728      1.57377        -0.181218     -0.075079      0.205256
     -0.47740      3.73198     -0.17443         0.278952     -0.031944     -0.165918
      1.54044      0.39184     -0.01965        -0.005397     -0.011584     -0.001843
     -2.40613      3.29120      1.89893         0.094529     -0.069531     -0.118679
 -----------------------------------------------------------------------------------
    total drift:                                0.001135     -0.000578     -0.000919


--------------------------------------------------------------------------------------------------------



  FREE ENERGIE OF THE ION-ELECTRON SYSTEM (eV)
  ---------------------------------------------------
  free  energy   TOTEN  =       -33.40103017 eV

  energy  without entropy=      -33.40103017  energy(sigma->0) =      -33.40103017
 
 d Force =-0.1457139E-02[-0.115E-01, 0.855E-02]  d Energy =-0.2795600E-02 0.134E-02
 d Force =-0.9546599E+01[-0.965E+01,-0.944E+01]  d Ewald  =-0.2316097E+02 0.136E+02


--------------------------------------------------------------------------------------------------------


    POTLOK:  cpu time    0.0280: real time    0.0282


--------------------------------------------------------------------------------------------------------


 stress matrix after NEB project (eV)
      1.03237     -0.12823      0.06379
     -0.12823      0.01011     -0.17878
      0.06379     -0.17878      1.29065
  FORCES: max atom, RMS     0.340348    0.241861
  FORCE total and by dimension    0.592435    0.311524
  Stress total and by dimension    1.684230    1.290652
