Co–organic framework                  
           1
     3.605493   -0.456981    0.023225
    -3.451292    6.237012   -0.780613
    -1.842672   -0.019368    3.354356
   Li   C    O 
   2   1   3
Direct configuration=     1
   0.49195708  0.69828056  0.31589391
   0.76787425  0.50482180  0.74436216
   0.53269285  0.58965041  0.61013304
   0.54836734  0.66196701  0.10124444
   0.54627307  0.10293431  0.02099238
   0.24048735  0.56999792  0.70737406
Co–organic framework                  
           1
     3.588152   -0.457133    0.021062
    -3.439041    6.201487   -0.772510
    -1.835374   -0.016763    3.336113
   Li   C    O 
   2   1   3
Direct configuration=     2
   0.49157773  0.69862661  0.31727289
   0.76948370  0.50402144  0.74567667
   0.53118591  0.58986329  0.60960231
   0.54928238  0.66194424  0.09995272
   0.54615195  0.10335429  0.02040261
   0.23997027  0.56984215  0.70709280
Co–organic framework                  
           1
     3.589760   -0.457119    0.021262
    -3.440177    6.204781   -0.773261
    -1.836051   -0.017005    3.337804
   Li   C    O 
   2   1   3
Direct configuration=     3
   0.49161300  0.69859441  0.31714442
   0.76933374  0.50409605  0.74555396
   0.53132638  0.58984349  0.60965189
   0.54919712  0.66194628  0.10007304
   0.54616320  0.10331511  0.02045763
   0.24001851  0.56985668  0.70711903
Co–organic framework                  
           1
     3.585040   -0.456693    0.020455
    -3.436021    6.194832   -0.771497
    -1.834342   -0.016820    3.333720
   Li   C    O 
   2   1   3
Direct configuration=     4
   0.49153387  0.69877358  0.31710391
   0.76948923  0.50398725  0.74572870
   0.53135401  0.58969998  0.60996123
   0.54938274  0.66196045  0.09980438
   0.54613505  0.10343683  0.02029473
   0.23975704  0.56979393  0.70710705
Co–organic framework                  
           1
     3.570882   -0.455414    0.018034
    -3.423553    6.164988   -0.766206
    -1.829214   -0.016265    3.321469
   Li   C    O 
   2   1   3
Direct configuration=     5
   0.49129630  0.69931195  0.31698207
   0.76995636  0.50366034  0.74625370
   0.53143703  0.58926875  0.61089044
   0.54994032  0.66200306  0.09899752
   0.54605052  0.10380258  0.01980536
   0.23897141  0.56960534  0.70707090
Co–organic framework                  
           1
     3.542565   -0.452857    0.013192
    -3.398617    6.105298   -0.755625
    -1.818959   -0.015156    3.296966
   Li   C    O 
   2   1   3
Direct configuration=     6
   0.49081999  0.70039394  0.31673666
   0.77089456  0.50300335  0.74730855
   0.53160369  0.58840198  0.61275622
   0.55105991  0.66208892  0.09737865
   0.54588105  0.10453772  0.01882254
   0.23739275  0.56922610  0.70699737
Co–organic framework                  
           1
     3.558646   -0.454309    0.015942
    -3.412778    6.139195   -0.761634
    -1.824782   -0.015786    3.310881
   Li   C    O 
   2   1   3
Direct configuration=     7
   0.49109180  0.69977346  0.31687804
   0.77035724  0.50338007  0.74670394
   0.53150832  0.58889917  0.61168823
   0.55041904  0.66203942  0.09830388
   0.54597777  0.10411607  0.01938533
   0.23829777  0.56944382  0.70704057
Co–organic framework                  
           1
     3.555421   -0.453941    0.015672
    -3.410702    6.125794   -0.761912
    -1.823426   -0.016279    3.306730
   Li   C    O 
   2   1   3
Direct configuration=     8
   0.49133703  0.70001433  0.31628952
   0.77072863  0.50298502  0.74716998
   0.53157423  0.58889422  0.61200158
   0.55054650  0.66216515  0.09822346
   0.54592560  0.10431474  0.01911452
   0.23753995  0.56927857  0.70720094
Co–organic framework                  
           1
     3.546226   -0.452892    0.014901
    -3.404783    6.087583   -0.762705
    -1.819560   -0.017687    3.294897
   Li   C    O 
   2   1   3
Direct configuration=     9
   0.49203769  0.70070257  0.31460975
   0.77178692  0.50185608  0.74849994
   0.53176266  0.58888016  0.61289620
   0.55091091  0.66252447  0.09799409
   0.54577750  0.10488245  0.01834165
   0.23537626  0.56880629  0.70765835
Co–organic framework                  
           1
     3.544822   -0.451178    0.013535
    -3.403555    6.061411   -0.759826
    -1.820039   -0.017223    3.290624
   Li   C    O 
   2   1   3
Direct configuration=    10
   0.49304571  0.70086799  0.31470530
   0.77144098  0.50133165  0.74876556
   0.53248356  0.58900926  0.61302159
   0.55133126  0.66280083  0.09781412
   0.54566502  0.10524727  0.01782952
   0.23368542  0.56839503  0.70786389
Co–organic framework                  
           1
     3.541545   -0.447177    0.010347
    -3.400686    6.000299   -0.753103
    -1.821160   -0.016141    3.280647
   Li   C    O 
   2   1   3
Direct configuration=    11
   0.49540201  0.70125542  0.31492960
   0.77062830  0.50010164  0.74938609
   0.53416889  0.58931166  0.61331541
   0.55231547  0.66344885  0.09739382
   0.54540493  0.10610315  0.01663222
   0.22973235  0.56743129  0.70834287
Co–organic framework                  
           1
     3.543871   -0.445976    0.009117
    -3.404368    5.970686   -0.751764
    -1.823425   -0.015545    3.280258
   Li   C    O 
   2   1   3
Direct configuration=    12
   0.49677013  0.70181195  0.31545678
   0.77020113  0.49928546  0.74982424
   0.53432738  0.58933134  0.61388577
   0.55323369  0.66375026  0.09669984
   0.54523050  0.10659084  0.01592730
   0.22788913  0.56688216  0.70820607
Co–organic framework                  
           1
     3.550852   -0.442374    0.005426
    -3.415412    5.881848   -0.747747
    -1.830221   -0.013755    3.279092
   Li   C    O 
   2   1   3
Direct configuration=    13
   0.50088369  0.70348954  0.31704116
   0.76890496  0.49682381  0.75113639
   0.53480399  0.58939050  0.61559725
   0.55599105  0.66465883  0.09461932
   0.54471606  0.10806214  0.01381336
   0.22235220  0.56522720  0.70779251
Co–organic framework                  
           1
     3.564813   -0.435170   -0.001957
    -3.437499    5.704171   -0.739714
    -1.843813   -0.010177    3.276761
   Li   C    O 
   2   1   3
Direct configuration=    14
   0.50916715  0.70689366  0.32022729
   0.76622287  0.49182015  0.75374656
   0.53576409  0.58950949  0.61902250
   0.56152262  0.66650260  0.09046683
   0.54374145  0.11105519  0.00959062
   0.21123376  0.56187093  0.70694619
Co–organic framework                  
           1
     3.554941   -0.440264    0.003263
    -3.421882    5.829801   -0.745394
    -1.834202   -0.012707    3.278409
   Li   C    O 
   2   1   3
Direct configuration=    15
   0.50322650  0.70441412  0.31794914
   0.76825268  0.49547726  0.75192225
   0.53507548  0.58942436  0.61659734
   0.55758529  0.66515940  0.09339047
   0.54434979  0.10886405  0.01256831
   0.21916221  0.56431282  0.70757248
Co–organic framework                  
           1
     3.552153   -0.441703    0.004738
    -3.417470    5.865292   -0.746999
    -1.831488   -0.013422    3.278875
   Li   C    O 
   2   1   3
Direct configuration=    16
   0.50156510  0.70372827  0.31731065
   0.76879921  0.49648639  0.75140258
   0.53488289  0.58940051  0.61591287
   0.55647828  0.66478791  0.09421892
   0.54453795  0.10826014  0.01341117
   0.22138851  0.56498880  0.70774381
Co–organic framework                  
           1
     3.551407   -0.442088    0.005132
    -3.416290    5.874779   -0.747428
    -1.830762   -0.013613    3.279000
   Li   C    O 
   2   1   3
Direct configuration=    17
   0.50112224  0.70354601  0.31714035
   0.76894333  0.49675438  0.75126335
   0.53483156  0.58939415  0.61572996
   0.55618275  0.66468919  0.09444055
   0.54458944  0.10809981  0.01363659
   0.22198264  0.56516848  0.70778920
Co–organic framework                  
           1
     3.551111   -0.442240    0.005288
    -3.415822    5.878547   -0.747598
    -1.830474   -0.013689    3.279049
   Li   C    O 
   2   1   3
Direct configuration=    18
   0.50094649  0.70347374  0.31707276
   0.76900035  0.49686061  0.75120803
   0.53481119  0.58939162  0.61565732
   0.55606542  0.66465005  0.09452859
   0.54461001  0.10803626  0.01372612
   0.22221848  0.56523973  0.70780717
Co–organic framework                  
           1
     3.550978   -0.442309    0.005359
    -3.415611    5.880242   -0.747675
    -1.830344   -0.013723    3.279071
   Li   C    O 
   2   1   3
Direct configuration=    19
   0.50086745  0.70344125  0.31704236
   0.76902597  0.49690837  0.75118313
   0.53480203  0.58939049  0.61562464
   0.55601265  0.66463245  0.09456820
   0.54461929  0.10800769  0.01376640
   0.22232455  0.56527176  0.70781525
Co–organic framework                  
           1
     3.550914   -0.442342    0.005393
    -3.415511    5.881052   -0.747711
    -1.830282   -0.013739    3.279082
   Li   C    O 
   2   1   3
Direct configuration=    20
   0.50082964  0.70342571  0.31702782
   0.76903822  0.49693122  0.75117122
   0.53479765  0.58938994  0.61560901
   0.55598740  0.66462404  0.09458715
   0.54462373  0.10799402  0.01378567
   0.22237530  0.56528708  0.70781912
Co–organic framework                  
           1
     3.550883   -0.442358    0.005409
    -3.415461    5.881449   -0.747729
    -1.830252   -0.013747    3.279087
   Li   C    O 
   2   1   3
Direct configuration=    21
   0.50081117  0.70341812  0.31702071
   0.76904420  0.49694237  0.75116540
   0.53479551  0.58938968  0.61560138
   0.55597507  0.66461993  0.09459641
   0.54462590  0.10798735  0.01379509
   0.22240009  0.56529457  0.70782101
Co–organic framework                  
           1
     3.550868   -0.442366    0.005417
    -3.415436    5.881648   -0.747738
    -1.830236   -0.013751    3.279090
   Li   C    O 
   2   1   3
Direct configuration=    22
   0.50080187  0.70341430  0.31701713
   0.76904722  0.49694800  0.75116247
   0.53479443  0.58938955  0.61559753
   0.55596885  0.66461785  0.09460107
   0.54462700  0.10798399  0.01379983
   0.22241258  0.56529834  0.70782196
Co–organic framework                  
           1
     3.550860   -0.442370    0.005422
    -3.415424    5.881748   -0.747743
    -1.830229   -0.013753    3.279091
   Li   C    O 
   2   1   3
Direct configuration=    23
   0.50079721  0.70341239  0.31701534
   0.76904872  0.49695081  0.75116100
   0.53479389  0.58938948  0.61559560
   0.55596575  0.66461682  0.09460340
   0.54462755  0.10798230  0.01380220
   0.22241883  0.56530022  0.70782243
Co–organic framework                  
           1
     3.550856   -0.442372    0.005424
    -3.415418    5.881798   -0.747745
    -1.830225   -0.013754    3.279092
   Li   C    O 
   2   1   3
Direct configuration=    24
   0.50079489  0.70341143  0.31701445
   0.76904948  0.49695221  0.75116027
   0.53479362  0.58938945  0.61559464
   0.55596419  0.66461630  0.09460457
   0.54462782  0.10798146  0.01380339
   0.22242195  0.56530117  0.70782267
Co–organic framework                  
           1
     3.550854   -0.442373    0.005425
    -3.415415    5.881823   -0.747746
    -1.830223   -0.013755    3.279092
   Li   C    O 
   2   1   3
Direct configuration=    25
   0.50079372  0.70341095  0.31701400
   0.76904985  0.49695292  0.75115991
   0.53479348  0.58938943  0.61559416
   0.55596342  0.66461604  0.09460515
   0.54462796  0.10798104  0.01380398
   0.22242351  0.56530164  0.70782279
Co–organic framework                  
           1
     3.550853   -0.442374    0.005425
    -3.415413    5.881835   -0.747747
    -1.830222   -0.013755    3.279092
   Li   C    O 
   2   1   3
Direct configuration=    26
   0.50079314  0.70341071  0.31701378
   0.76905004  0.49695327  0.75115972
   0.53479342  0.58938942  0.61559392
   0.55596303  0.66461591  0.09460544
   0.54462803  0.10798083  0.01380428
   0.22242429  0.56530187  0.70782285
Co–organic framework                  
           1
     3.550852   -0.442374    0.005425
    -3.415412    5.881842   -0.747747
    -1.830222   -0.013755    3.279092
   Li   C    O 
   2   1   3
Direct configuration=    27
   0.50079285  0.70341059  0.31701367
   0.76905013  0.49695344  0.75115963
   0.53479338  0.58938942  0.61559380
   0.55596283  0.66461585  0.09460559
   0.54462806  0.10798073  0.01380443
   0.22242468  0.56530199  0.70782288
Co–organic framework                  
           1
     3.550852   -0.442374    0.005426
    -3.415412    5.881845   -0.747747
    -1.830221   -0.013755    3.279092
   Li   C    O 
   2   1   3
Direct configuration=    28
   0.50079271  0.70341053  0.31701361
   0.76905018  0.49695353  0.75115958
   0.53479337  0.58938941  0.61559374
   0.55596274  0.66461582  0.09460566
   0.54462808  0.10798068  0.01380450
   0.22242488  0.56530205  0.70782289
Co–organic framework                  
           1
     3.550852   -0.442374    0.005426
    -3.415412    5.881846   -0.747747
    -1.830221   -0.013755    3.279092
   Li   C    O 
   2   1   3
Direct configuration=    29
   0.50079263  0.70341050  0.31701358
   0.76905021  0.49695357  0.75115956
   0.53479336  0.58938941  0.61559371
   0.55596269  0.66461580  0.09460570
   0.54462809  0.10798065  0.01380454
   0.22242498  0.56530208  0.70782290
