Co–organic framework                  
           1
     9.813847    0.000000    0.000000
    -4.628217    8.653970    0.000000
    -4.470393    2.678746   11.576603
   Li   C    O 
   2   1   3
Direct configuration=     1
   0.44586257  0.68703288  0.49170973
   0.71046780  0.48315845  0.61812867
   0.48852721  0.48454329  0.59968415
   0.60011209  0.60972925  0.54387388
   0.52564373  0.36657078  0.66349382
   0.35703855  0.49661737  0.58310975
Co–organic framework                  
           1
     8.932979    0.169190   -0.229974
    -4.063606    8.217828    0.382568
    -4.294242    2.858058   11.407974
   Li   C    O 
   2   1   3
Direct configuration=     2
   0.45149537  0.68098408  0.49527869
   0.70306660  0.48717540  0.61548516
   0.48741078  0.48330377  0.60024323
   0.59054713  0.59901272  0.54864451
   0.52179637  0.38131934  0.65555726
   0.37333569  0.49585670  0.58479114
Co–organic framework                  
           1
     9.037324    0.149148   -0.202732
    -4.130488    8.269492    0.337250
    -4.315108    2.836818   11.427949
   Li   C    O 
   2   1   3
Direct configuration=     3
   0.45073842  0.68178021  0.49480772
   0.70404364  0.48663258  0.61584083
   0.48754991  0.48345814  0.60017365
   0.59173852  0.60034746  0.54805030
   0.52236088  0.37941643  0.65658649
   0.37122058  0.49601721  0.58454100
Co–organic framework                  
           1
     8.461524    0.423303   -0.479355
    -3.617184    8.003761    0.569574
    -4.304390    2.806006   11.384245
   Li   C    O 
   2   1   3
Direct configuration=     4
   0.46479750  0.67139512  0.50126405
   0.69060163  0.49753958  0.60918836
   0.49381499  0.49060025  0.59699389
   0.59125399  0.59984819  0.54826339
   0.52051870  0.37473027  0.65878086
   0.36666513  0.49353862  0.58550945
Co–organic framework                  
           1
     7.219587    1.014625   -1.076003
    -2.510042    7.430607    1.070672
    -4.281274    2.739548   11.289979
   Li   C    O 
   2   1   3
Direct configuration=     5
   0.49825470  0.64657508  0.51669011
   0.65849687  0.52347106  0.59334859
   0.50732642  0.50603211  0.59012171
   0.59020272  0.59877419  0.54872097
   0.51685270  0.36437141  0.66366728
   0.35651854  0.48842817  0.58745134
Co–organic framework                  
           1
     8.431698    0.437504   -0.493684
    -3.590595    7.989996    0.581609
    -4.303835    2.804410   11.381981
   Li   C    O 
   2   1   3
Direct configuration=     6
   0.45617192  0.67808394  0.49711848
   0.69919615  0.49092160  0.61329551
   0.49415679  0.49090300  0.59686452
   0.59124647  0.59981276  0.54828096
   0.51949905  0.37523047  0.65843893
   0.36738156  0.49270024  0.58600160
Co–organic framework                  
           1
     7.825642    0.726065   -0.784844
    -3.050318    7.710302    0.826141
    -4.292554    2.771979   11.335980
   Li   C    O 
   2   1   3
Direct configuration=     7
   0.47258677  0.66590397  0.50468842
   0.68344187  0.50364355  0.60552394
   0.50075017  0.49843435  0.59351058
   0.59073329  0.59928874  0.54850419
   0.51771873  0.37016839  0.66082777
   0.36242110  0.49021302  0.58694509
Co–organic framework                  
           1
     8.232209    0.532487   -0.589522
    -3.412758    7.897932    0.662099
    -4.300122    2.793735   11.366839
   Li   C    O 
   2   1   3
Direct configuration=     8
   0.46021761  0.67512349  0.49896010
   0.69535869  0.49406675  0.61138344
   0.49632899  0.49337162  0.59576594
   0.59108015  0.59963894  0.54835536
   0.51877923  0.37367240  0.65915901
   0.36588726  0.49177883  0.58637614
Co–organic framework                  
           1
     8.028926    0.629276   -0.687183
    -3.231538    7.804117    0.744120
    -4.296338    2.782857   11.351410
   Li   C    O 
   2   1   3
Direct configuration=     9
   0.46592957  0.67087887  0.50159790
   0.68986971  0.49849221  0.60867862
   0.49854031  0.49589943  0.59464011
   0.59090762  0.59946337  0.54843010
   0.51820236  0.37195802  0.65997034
   0.36420237  0.49096012  0.58668291
Co–organic framework                  
           1
     7.939143    0.709368   -0.759006
    -3.118576    7.766884    0.775831
    -4.318346    2.743667   11.359146
   Li   C    O 
   2   1   3
Direct configuration=    10
   0.47023219  0.66760519  0.50360465
   0.68567266  0.50183310  0.60665361
   0.49960101  0.49714516  0.59408653
   0.59328498  0.60213496  0.54723563
   0.51772162  0.36892574  0.66144510
   0.36113949  0.49000786  0.58697447
Co–organic framework                  
           1
     7.900943    0.743446   -0.789566
    -3.070513    7.751042    0.789324
    -4.327709    2.726993   11.362438
   Li   C    O 
   2   1   3
Direct configuration=    11
   0.47210397  0.66618030  0.50447831
   0.68384582  0.50328614  0.60577244
   0.50004868  0.49767169  0.59385252
   0.59428914  0.60326352  0.54673104
   0.51753521  0.36763181  0.66207593
   0.35982912  0.48961856  0.58708976
Co–organic framework                  
           1
     7.931140    0.780057   -0.814246
    -3.052481    7.770861    0.771124
    -4.360606    2.681887   11.385011
   Li   C    O 
   2   1   3
Direct configuration=    12
   0.47186962  0.66590448  0.50456979
   0.68361675  0.50305916  0.60590874
   0.49975697  0.49736911  0.59399010
   0.59788506  0.60727412  0.54494131
   0.51728854  0.36508051  0.66332364
   0.35723501  0.48896463  0.58726642
Co–organic framework                  
           1
     8.021731    0.889891   -0.888286
    -2.998385    7.830319    0.716524
    -4.459296    2.546571   11.452732
   Li   C    O 
   2   1   3
Direct configuration=    13
   0.47117326  0.66508454  0.50484080
   0.68293655  0.50238604  0.60631425
   0.49889025  0.49647081  0.59439864
   0.60856532  0.61918550  0.53962585
   0.51659090  0.35747450  0.66704530
   0.34949567  0.48705062  0.58777516
Co–organic framework                  
           1
     8.202914    1.109560   -1.036366
    -2.890192    7.949236    0.607323
    -4.656676    2.275937   11.588175
   Li   C    O 
   2   1   3
Direct configuration=    14
   0.46981924  0.66348805  0.50536310
   0.68161649  0.50108496  0.60710555
   0.49720543  0.49472864  0.59519148
   0.62930583  0.64231371  0.52930482
   0.51543991  0.34253872  0.67436473
   0.33426505  0.48349794  0.58867031
Co–organic framework                  
           1
     8.136270    1.028759   -0.981898
    -2.929989    7.905495    0.647491
    -4.584073    2.375485   11.538355
   Li   C    O 
   2   1   3
Direct configuration=    15
   0.47029118  0.66404603  0.50518432
   0.68207481  0.50153305  0.60682776
   0.49779234  0.49533272  0.59491621
   0.62209531  0.63427523  0.53289205
   0.51569848  0.34784608  0.67175610
   0.33969982  0.48461891  0.58842355
Co–organic framework                  
           1
     8.126914    1.017416   -0.974252
    -2.935575    7.899354    0.653129
    -4.573882    2.389459   11.531361
   Li   C    O 
   2   1   3
Direct configuration=    16
   0.47035873  0.66412581  0.50515856
   0.68214050  0.50159747  0.60678810
   0.49787636  0.49541935  0.59487675
   0.62106228  0.63312346  0.53340603
   0.51574298  0.34860040  0.67138574
   0.34047109  0.48478553  0.58838481
Co–organic framework                  
           1
     8.112776    1.018103   -0.975617
    -2.928333    7.889688    0.656198
    -4.568831    2.389502   11.521639
   Li   C    O 
   2   1   3
Direct configuration=    17
   0.46891164  0.66193606  0.50611743
   0.68014302  0.49993882  0.60754070
   0.49986573  0.49769653  0.59385964
   0.62327783  0.63558743  0.53231213
   0.51551368  0.34796513  0.67162804
   0.33994005  0.48452806  0.58854205
Co–organic framework                  
           1
     8.073373    1.020015   -0.979422
    -2.908149    7.862747    0.664750
    -4.554754    2.389622   11.494543
   Li   C    O 
   2   1   3
Direct configuration=    18
   0.46487444  0.65582540  0.50879336
   0.67456841  0.49531122  0.60964023
   0.50541683  0.50405063  0.59102160
   0.62946015  0.64246265  0.52925988
   0.51487439  0.34619217  0.67230443
   0.33845772  0.48380994  0.58898050
Co–organic framework                  
           1
     8.075920    1.019891   -0.979176
    -2.909454    7.864488    0.664197
    -4.555664    2.389614   11.496294
   Li   C    O 
   2   1   3
Direct configuration=    19
   0.46513612  0.65622176  0.50861977
   0.67493010  0.49561120  0.60950416
   0.50505683  0.50363857  0.59120563
   0.62905920  0.64201682  0.52945780
   0.51491575  0.34630721  0.67226051
   0.33855395  0.48385645  0.58895212
Co–organic framework                  
           1
     8.075330    1.019920   -0.979233
    -2.909151    7.864085    0.664325
    -4.555453    2.389616   11.495888
   Li   C    O 
   2   1   3
Direct configuration=    20
   0.46507548  0.65612992  0.50865999
   0.67484629  0.49554169  0.60953569
   0.50514025  0.50373405  0.59116299
   0.62915211  0.64212013  0.52941193
   0.51490616  0.34628055  0.67227068
   0.33853165  0.48384568  0.58895870
Co–organic framework                  
           1
     8.075065    1.019473   -0.977847
    -2.909945    7.863619    0.659164
    -4.553329    2.383610   11.490738
   Li   C    O 
   2   1   3
Direct configuration=    21
   0.46425902  0.65660861  0.50825977
   0.67531620  0.49501811  0.60992123
   0.50532860  0.50380546  0.59114043
   0.62948172  0.64242631  0.52928910
   0.51424386  0.34643332  0.67205588
   0.33902255  0.48336021  0.58933359
Co–organic framework                  
           1
     8.074748    1.018938   -0.976191
    -2.910892    7.863063    0.652997
    -4.550792    2.376433   11.484585
   Li   C    O 
   2   1   3
Direct configuration=    22
   0.46328356  0.65718011  0.50778174
   0.67587756  0.49439293  0.61038171
   0.50555366  0.50389076  0.59111348
   0.62987565  0.64279206  0.52914239
   0.51345251  0.34661561  0.67179930
   0.33960900  0.48278054  0.58978137
Co–organic framework                  
           1
     8.062502    1.022308   -0.978910
    -2.902577    7.855831    0.652394
    -4.547092    2.370650   11.475847
   Li   C    O 
   2   1   3
Direct configuration=    23
   0.46301269  0.65719898  0.50762137
   0.67599870  0.49428196  0.61056761
   0.50563642  0.50416417  0.59097545
   0.63009012  0.64301705  0.52905452
   0.51258018  0.34681069  0.67149531
   0.34033384  0.48217917  0.59028572
Co–organic framework                  
           1
     8.025765    1.032415   -0.987068
    -2.877631    7.834135    0.650586
    -4.535995    2.353299   11.449634
   Li   C    O 
   2   1   3
Direct configuration=    24
   0.46219875  0.65725600  0.50713955
   0.67636297  0.49394872  0.61112591
   0.50588442  0.50498485  0.59056111
   0.63073397  0.64369208  0.52879095
   0.50995878  0.34739804  0.67058158
   0.34251305  0.48037233  0.59180088
Co–organic framework                  
           1
     7.952289    1.052630   -1.003383
    -2.827740    7.790743    0.646969
    -4.513800    2.318599   11.397207
   Li   C    O 
   2   1   3
Direct configuration=    25
   0.46056298  0.65737263  0.50617175
   0.67709663  0.49328018  0.61224603
   0.50637883  0.50662895  0.58973085
   0.63202436  0.64504268  0.52826393
   0.50468933  0.34858544  0.66874337
   0.34689981  0.47674214  0.59484406
Co–organic framework                  
           1
     7.996934    1.040347   -0.993469
    -2.858055    7.817109    0.649167
    -4.527286    2.339684   11.429062
   Li   C    O 
   2   1   3
Direct configuration=    26
   0.46156668  0.65729856  0.50676495
   0.67664451  0.49368893  0.61156108
   0.50608040  0.50562658  0.59023728
   0.63123699  0.64422141  0.52858399
   0.50792409  0.34784819  0.66987359
   0.34419928  0.47896834  0.59297910
Co–organic framework                  
           1
     7.977906    1.043895   -0.995921
    -2.848116    7.810739    0.641441
    -4.518800    2.324986   11.415113
   Li   C    O 
   2   1   3
Direct configuration=    27
   0.46136153  0.65778426  0.50614148
   0.67732394  0.49378130  0.61190768
   0.50547500  0.50589467  0.59005532
   0.63135810  0.64443646  0.52849809
   0.50667081  0.34754380  0.66951972
   0.34546257  0.47821153  0.59387770
Co–organic framework                  
           1
     7.920819    1.054540   -1.003276
    -2.818299    7.791630    0.618261
    -4.493342    2.280892   11.373263
   Li   C    O 
   2   1   3
Direct configuration=    28
   0.46074345  0.65924014  0.50426949
   0.67936691  0.49405833  0.61294981
   0.50365399  0.50670037  0.58950846
   0.63172180  0.64508136  0.52824061
   0.50290269  0.34663174  0.66845458
   0.34926310  0.47594009  0.59657705
Co–organic framework                  
           1
     7.806647    1.075829   -1.017986
    -2.758665    7.753413    0.571903
    -4.442425    2.192704   11.289565
   Li   C    O 
   2   1   3
Direct configuration=    29
   0.45949135  0.66214451  0.50051584
   0.68348133  0.49461202  0.61504802
   0.49998271  0.50832025  0.58840859
   0.63245155  0.64636965  0.52772714
   0.49531623  0.34481439  0.66630309
   0.35692878  0.47139120  0.60199731
Co–organic framework                  
           1
     7.803814    1.076124   -1.018233
    -2.757423    7.752655    0.570844
    -4.441074    2.190854   11.287712
   Li   C    O 
   2   1   3
Direct configuration=    30
   0.45946447  0.66220198  0.50043220
   0.68355591  0.49462256  0.61509736
   0.49991086  0.50837489  0.58837760
   0.63246236  0.64639628  0.52771593
   0.49515198  0.34475767  0.66625745
   0.35710637  0.47129864  0.60211944
Co–organic framework                  
           1
     7.795317    1.077011   -1.018973
    -2.753696    7.750384    0.567668
    -4.437021    2.185303   11.282153
   Li   C    O 
   2   1   3
Direct configuration=    31
   0.45938380  0.66237434  0.50018127
   0.68377974  0.49465419  0.61524541
   0.49969520  0.50853880  0.58828461
   0.63249478  0.64647620  0.52768231
   0.49465908  0.34458752  0.66612048
   0.35763934  0.47102097  0.60248591
Co–organic framework                  
           1
     7.778322    1.078783   -1.020455
    -2.746241    7.745841    0.561315
    -4.428914    2.174201   11.271035
   Li   C    O 
   2   1   3
Direct configuration=    32
   0.45922223  0.66271891  0.49967923
   0.68422786  0.49471749  0.61554175
   0.49926334  0.50886675  0.58809855
   0.63255967  0.64663600  0.52761507
   0.49367231  0.34424729  0.66584615
   0.35870654  0.47046557  0.60321924
Co–organic framework                  
           1
     7.744333    1.082327   -1.023417
    -2.731332    7.736755    0.548610
    -4.412701    2.151998   11.248799
   Li   C    O 
   2   1   3
Direct configuration=    33
   0.45889814  0.66340742  0.49867444
   0.68512590  0.49484432  0.61613535
   0.49839746  0.50952309  0.58772610
   0.63268957  0.64695554  0.52748068
   0.49169489  0.34356707  0.66529595
   0.36084598  0.46935459  0.60468747
Co–organic framework                  
           1
     7.676354    1.089415   -1.029343
    -2.701513    7.718584    0.523199
    -4.380274    2.107592   11.204327
   Li   C    O 
   2   1   3
Direct configuration=    34
   0.45824619  0.66478189  0.49666206
   0.68692932  0.49509878  0.61732628
   0.49665702  0.51083755  0.58697988
   0.63294992  0.64759430  0.52721223
   0.48772441  0.34220759  0.66418932
   0.36514509  0.46713192  0.60763021
Co–organic framework                  
           1
     7.651342    1.089559   -1.030461
    -2.693085    7.714041    0.515091
    -4.367679    2.095142   11.190517
   Li   C    O 
   2   1   3
Direct configuration=    35
   0.45805472  0.66508752  0.49606059
   0.68721827  0.49514130  0.61771764
   0.49637149  0.51153447  0.58666425
   0.63295494  0.64777271  0.52712420
   0.48656381  0.34156560  0.66388119
   0.36648872  0.46655042  0.60855213
Co–organic framework                  
           1
     7.576303    1.089990   -1.033815
    -2.667800    7.700412    0.490765
    -4.329894    2.057794   11.149085
   Li   C    O 
   2   1   3
Direct configuration=    36
   0.45747884  0.66600274  0.49425449
   0.68808731  0.49527002  0.61889348
   0.49551140  0.51362545  0.58571728
   0.63296987  0.64830781  0.52686015
   0.48307206  0.33963952  0.66295301
   0.37053246  0.46480648  0.61132158
Co–organic framework                  
           1
     7.426226    1.090852   -1.040525
    -2.617230    7.673155    0.442114
    -4.254324    1.983097   11.066221
   Li   C    O 
   2   1   3
Direct configuration=    37
   0.45631817  0.66782293  0.49063214
   0.68983862  0.49553449  0.62125590
   0.49376992  0.51780888  0.58382288
   0.63299907  0.64937735  0.52633241
   0.47602811  0.33578661  0.66107367
   0.37869806  0.46132176  0.61688299
Co–organic framework                  
           1
     7.126072    1.092575   -1.053943
    -2.516090    7.618642    0.344811
    -4.103184    1.833704   10.900493
   Li   C    O 
   2   1   3
Direct configuration=    38
   0.45396051  0.67142184  0.48334604
   0.69339545  0.49609188  0.62602454
   0.49019911  0.52618203  0.58003185
   0.63305468  0.65151379  0.52527830
   0.46169149  0.32807802  0.65722116
   0.39535070  0.45436446  0.62809810
Co–organic framework                  
           1
     6.525764    1.096023   -1.080780
    -2.313811    7.509614    0.150206
    -3.800904    1.534916   10.569037
   Li   C    O 
   2   1   3
Direct configuration=    39
   0.44909424  0.67844962  0.46860152
   0.70073674  0.49732359  0.63574384
   0.48268339  0.54295754  0.57243813
   0.63315410  0.65577627  0.52317549
   0.43196389  0.31265141  0.64912443
   0.43001958  0.44049360  0.65091659
Co–organic framework                  
           1
     6.861964    1.094092   -1.065750
    -2.427097    7.570675    0.259193
    -3.970194    1.702251   10.754667
   Li   C    O 
   2   1   3
Direct configuration=    40
   0.45200282  0.67471438  0.47706841
   0.69634296  0.49649540  0.63007985
   0.48737065  0.53351939  0.57671153
   0.63311335  0.65340032  0.52434736
   0.44994780  0.32129624  0.65413898
   0.40887437  0.44822630  0.63765386
Co–organic framework                  
           1
     6.738527    1.098086   -1.081533
    -2.385151    7.569109    0.222014
    -3.922213    1.644432   10.697301
   Li   C    O 
   2   1   3
Direct configuration=    41
   0.45112487  0.67498699  0.47493290
   0.69474062  0.49697895  0.63131335
   0.49052940  0.53816022  0.57578450
   0.63277896  0.65473040  0.52334184
   0.44420794  0.31669094  0.65297773
   0.41427015  0.44610452  0.64164967
Co–organic framework                  
           1
     6.631121    1.101561   -1.095266
    -2.348654    7.567747    0.189662
    -3.880463    1.594122   10.647385
   Li   C    O 
   2   1   3
Direct configuration=    42
   0.45034876  0.67521467  0.47306342
   0.69331624  0.49741270  0.63238850
   0.49331359  0.54218255  0.57499556
   0.63247895  0.65588317  0.52246499
   0.43913847  0.31269622  0.65193274
   0.41905592  0.44426270  0.64515478
Co–organic framework                  
           1
     6.634198    1.113486   -1.104273
    -2.341043    7.586545    0.180407
    -3.890886    1.577881   10.649051
   Li   C    O 
   2   1   3
Direct configuration=    43
   0.45046163  0.67503275  0.47333756
   0.69316989  0.49752756  0.63232763
   0.49515837  0.54164101  0.57640030
   0.63233932  0.65707628  0.52135460
   0.43877296  0.31151131  0.65230648
   0.41774978  0.44486311  0.64427342
Co–organic framework                  
           1
     6.643431    1.149260   -1.131294
    -2.318213    7.642939    0.152642
    -3.922156    1.529160   10.654052
   Li   C    O 
   2   1   3
Direct configuration=    44
   0.45080272  0.67448923  0.47415988
   0.69273012  0.49787169  0.63214493
   0.50070148  0.54001873  0.58061801
   0.63190764  0.66064169  0.51802561
   0.43768508  0.30796896  0.65342419
   0.41382491  0.44666171  0.64162738
Co–organic framework                  
           1
     6.661897    1.220809   -1.185336
    -2.272553    7.755728    0.097111
    -3.984696    1.431717   10.664052
   Li   C    O 
   2   1   3
Direct configuration=    45
   0.45149973  0.67341536  0.47580403
   0.69184645  0.49855743  0.63177885
   0.51184039  0.53678786  0.58907452
   0.63096844  0.66769037  0.51138028
   0.43556054  0.30095740  0.65563897
   0.40593639  0.45024359  0.63632334
Co–organic framework                  
           1
     6.653259    1.187341   -1.160057
    -2.293911    7.702970    0.123086
    -3.955442    1.477297   10.659374
   Li   C    O 
   2   1   3
Direct configuration=    46
   0.45116005  0.67390581  0.47503524
   0.69226364  0.49823895  0.63195076
   0.50658077  0.53828701  0.58509870
   0.63147710  0.66446730  0.51447789
   0.43650793  0.30417114  0.65462151
   0.40966245  0.44858181  0.63881590
Co–organic framework                  
           1
     6.658632    1.193304   -1.163148
    -2.292034    7.714586    0.117101
    -3.960810    1.468687   10.658905
   Li   C    O 
   2   1   3
Direct configuration=    47
   0.45143097  0.67368889  0.47535402
   0.69297943  0.49802890  0.63222267
   0.50702981  0.53825279  0.58562327
   0.63104628  0.66522123  0.51370651
   0.43628086  0.30344852  0.65484567
   0.40888459  0.44901168  0.63824785
Co–organic framework                  
           1
     6.674750    1.211191   -1.172422
    -2.286403    7.749433    0.099144
    -3.976914    1.442857   10.657496
   Li   C    O 
   2   1   3
Direct configuration=    48
   0.45224445  0.67303941  0.47631035
   0.69512615  0.49739903  0.63303862
   0.50837766  0.53815081  0.58719746
   0.62975108  0.66747836  0.51139294
   0.43560217  0.30128505  0.65551700
   0.40655044  0.45029936  0.63654361
Co–organic framework                  
           1
     6.706987    1.246966   -1.190969
    -2.275141    7.819129    0.063230
    -4.009122    1.391196   10.654679
   Li   C    O 
   2   1   3
Direct configuration=    49
   0.45387579  0.67174826  0.47822289
   0.69941556  0.49614084  0.63467191
   0.51107767  0.53795081  0.59034869
   0.62714435  0.67196481  0.50676900
   0.43425976  0.29698412  0.65685278
   0.40187881  0.45286317  0.63313471
Co–organic framework                  
           1
     6.771460    1.318517   -1.228063
    -2.252617    7.958520   -0.008598
    -4.073538    1.287875   10.649044
   Li   C    O 
   2   1   3
Direct configuration=    50
   0.45715574  0.66919662  0.48204772
   0.70797849  0.49363079  0.63794398
   0.51649491  0.53756653  0.59666271
   0.62186674  0.68082856  0.49753333
   0.43163359  0.28848431  0.65949732
   0.39252247  0.45794521  0.62631494
Co–organic framework                  
           1
     6.758399    1.325178   -1.225376
    -2.253029    8.004177   -0.028956
    -4.061313    1.271669   10.625448
   Li   C    O 
   2   1   3
Direct configuration=    51
   0.45941860  0.66787889  0.48429286
   0.70985835  0.49228797  0.63974810
   0.52005054  0.53798714  0.59773260
   0.61773757  0.68369985  0.49403836
   0.43064943  0.28527527  0.66046356
   0.38993745  0.46052290  0.62372452
Co–organic framework                  
           1
     6.719217    1.345162   -1.217317
    -2.254264    8.141146   -0.090029
    -4.024638    1.223049   10.554661
   Li   C    O 
   2   1   3
Direct configuration=    52
   0.46622128  0.66395274  0.49103566
   0.71551025  0.48828600  0.64516483
   0.53073300  0.53923546  0.60095087
   0.60532330  0.69225919  0.48354656
   0.42770044  0.27571251  0.66335160
   0.38216366  0.46820612  0.61595048
Co–organic framework                  
           1
     6.704960    1.352433   -1.214385
    -2.254713    8.190985   -0.112252
    -4.011294    1.205358   10.528904
   Li   C    O 
   2   1   3
Direct configuration=    53
   0.46871199  0.66255295  0.49349746
   0.71758024  0.48685806  0.64714081
   0.53463713  0.53967525  0.60213126
   0.60077695  0.69531558  0.47972094
   0.42663102  0.27230148  0.66439120
   0.37931462  0.47094869  0.61311832
Co–organic framework                  
           1
     6.671078    1.314822   -1.179514
    -2.291922    8.194289   -0.120009
    -3.954143    1.229352   10.494249
   Li   C    O 
   2   1   3
Direct configuration=    54
   0.46863930  0.66316672  0.49391674
   0.71961738  0.48523790  0.64943930
   0.53356985  0.53933981  0.60035079
   0.59810354  0.69545928  0.47911291
   0.42621596  0.27106071  0.66474106
   0.38150592  0.47338760  0.61243920
Co–organic framework                  
           1
     6.606939    1.243622   -1.113501
    -2.362360    8.200544   -0.134693
    -3.845953    1.274774   10.428646
   Li   C    O 
   2   1   3
Direct configuration=    55
   0.46850159  0.66432460  0.49471433
   0.72344062  0.48218303  0.65378612
   0.53156224  0.53870412  0.59697684
   0.59302842  0.69571193  0.47797327
   0.42540742  0.26871088  0.66540383
   0.38571165  0.47801747  0.61114559
Co–organic framework                  
           1
     6.547114    1.209973   -1.089286
    -2.383986    8.201241   -0.138411
    -3.789130    1.296109   10.394737
   Li   C    O 
   2   1   3
Direct configuration=    56
   0.46631952  0.66459730  0.49528439
   0.72114554  0.48187848  0.65495061
   0.53409933  0.53675583  0.59593454
   0.59231428  0.69618570  0.47739084
   0.42493866  0.26723713  0.66580884
   0.38883460  0.48099758  0.61063078
Co–organic framework                  
           1
     6.532759    1.201899   -1.083476
    -2.389175    8.201409   -0.139303
    -3.775495    1.301228   10.386601
   Li   C    O 
   2   1   3
Direct configuration=    57
   0.46579014  0.66466091  0.49542222
   0.72058717  0.48180335  0.65523136
   0.53471422  0.53629090  0.59568272
   0.59214281  0.69629905  0.47725105
   0.42482313  0.26688326  0.66590615
   0.38959448  0.48171455  0.61050649
Co–organic framework                  
           1
     6.535401    1.205220   -1.085844
    -2.387975    8.207396   -0.145052
    -3.778601    1.293450   10.387160
   Li   C    O 
   2   1   3
Direct configuration=    58
   0.46497865  0.66441757  0.49554705
   0.72088382  0.48187786  0.65534147
   0.53419492  0.53603525  0.59541977
   0.59317840  0.69687901  0.47701887
   0.42470253  0.26637744  0.66603909
   0.38971362  0.48206489  0.61063374
Co–organic framework                  
           1
     6.536329    1.206388   -1.086676
    -2.387554    8.209500   -0.147073
    -3.779693    1.290716   10.387357
   Li   C    O 
   2   1   3
Direct configuration=    59
   0.46469361  0.66433225  0.49559083
   0.72098806  0.48190402  0.65538020
   0.53401243  0.53594546  0.59532727
   0.59354212  0.69708248  0.47693744
   0.42466023  0.26619986  0.66608571
   0.38975550  0.48218794  0.61067854
Co–organic framework                  
           1
     6.530940    1.209478   -1.089382
    -2.384025    8.216780   -0.153315
    -3.778933    1.282540   10.386305
   Li   C    O 
   2   1   3
Direct configuration=    60
   0.46495717  0.66429614  0.49551171
   0.72091829  0.48216340  0.65525710
   0.53387184  0.53567355  0.59522715
   0.59373740  0.69751786  0.47685796
   0.42451814  0.26555999  0.66625320
   0.38964910  0.48244108  0.61089287
Co–organic framework                  
           1
     6.514773    1.218748   -1.097500
    -2.373439    8.238620   -0.172042
    -3.776652    1.258012   10.383149
   Li   C    O 
   2   1   3
Direct configuration=    61
   0.46574849  0.66418726  0.49527452
   0.72070829  0.48294064  0.65488811
   0.53345008  0.53485848  0.59492616
   0.59432291  0.69882228  0.47662038
   0.42409273  0.26364278  0.66675458
   0.38932943  0.48320057  0.61153625
Co–organic framework                  
           1
     6.511725    1.219462   -1.097319
    -2.373046    8.243256   -0.176484
    -3.774161    1.253592   10.380006
   Li   C    O 
   2   1   3
Direct configuration=    62
   0.46597127  0.66412668  0.49519307
   0.72098773  0.48298050  0.65491214
   0.53314162  0.53494178  0.59469863
   0.59436425  0.69908520  0.47662203
   0.42397693  0.26310988  0.66689436
   0.38921016  0.48340797  0.61167975
Co–organic framework                  
           1
     6.502581    1.221604   -1.096775
    -2.371867    8.257163   -0.189812
    -3.766689    1.240334   10.370577
   Li   C    O 
   2   1   3
Direct configuration=    63
   0.46663989  0.66394484  0.49494857
   0.72182640  0.48309993  0.65498434
   0.53221584  0.53519134  0.59401593
   0.59448827  0.69987345  0.47662733
   0.42362942  0.26151242  0.66731318
   0.38885213  0.48403004  0.61211064
Co–organic framework                  
           1
     6.494413    1.220520   -1.095084
    -2.372047    8.261968   -0.194738
    -3.760219    1.236612   10.361974
   Li   C    O 
   2   1   3
Direct configuration=    64
   0.46667639  0.66379223  0.49477385
   0.72184145  0.48315662  0.65490588
   0.53241728  0.53547596  0.59379700
   0.59462009  0.70018899  0.47671665
   0.42344274  0.26063080  0.66754584
   0.38865400  0.48440742  0.61226076
Co–organic framework                  
           1
     6.469912    1.217269   -1.090011
    -2.372586    8.276384   -0.209516
    -3.740811    1.225445   10.336165
   Li   C    O 
   2   1   3
Direct configuration=    65
   0.46678619  0.66333449  0.49424906
   0.72188676  0.48332648  0.65467039
   0.53302266  0.53632899  0.59314006
   0.59501597  0.70113509  0.47698526
   0.42288157  0.25798798  0.66824317
   0.38805879  0.48553900  0.61271205
Co–organic framework                  
           1
     6.420910    1.210768   -1.079865
    -2.373666    8.305214   -0.239071
    -3.701995    1.203112   10.284547
   Li   C    O 
   2   1   3
Direct configuration=    66
   0.46700770  0.66241957  0.49319563
   0.72197834  0.48366497  0.65419876
   0.53423972  0.53802997  0.59182533
   0.59581034  0.70302406  0.47752633
   0.42175253  0.25271456  0.66963384
   0.38686332  0.48779889  0.61362009
Co–organic framework                  
           1
     6.452955    1.215019   -1.086500
    -2.372960    8.286360   -0.219743
    -3.727379    1.217717   10.318303
   Li   C    O 
   2   1   3
Direct configuration=    67