  170  170 1000    2
  0.2344886E+02  0.2593708E-08  0.2590817E-08  0.6852455E-09  0.5000000E-15
  1.000000000000000E-004
  CAR 
 Co–organic framework                  
    826      1    526
