  170  170 1000    2
  0.2317271E+02  0.2592491E-08  0.2571785E-08  0.6803192E-09  0.5000000E-15
  1.000000000000000E-004
  CAR 
 Co–organic framework                  
    826      1    526
