 running on   24 total cores
 distrk:  each k-point on   24 cores,    1 groups
 distr:  one band on   12 cores,    2 groups
 using from now: INCAR     
 vasp.5.4.4.18Apr17-6-g9f103f2a35 (build May 21 2019 18:55:53) complex          
  
 POSCAR found type information on POSCAR  O  C  H  Co Li
 POSCAR found :  5 types and     170 ions

 ----------------------------------------------------------------------------- 
|                                                                             |
|           W    W    AA    RRRRR   N    N  II  N    N   GGGG   !!!           |
|           W    W   A  A   R    R  NN   N  II  NN   N  G    G  !!!           |
|           W    W  A    A  R    R  N N  N  II  N N  N  G       !!!           |
|           W WW W  AAAAAA  RRRRR   N  N N  II  N  N N  G  GGG   !            |
|           WW  WW  A    A  R   R   N   NN  II  N   NN  G    G                |
|           W    W  A    A  R    R  N    N  II  N    N   GGGG   !!!           |
|                                                                             |
|      For optimal performance we recommend to set                            |
|        NCORE= 4 - approx SQRT( number of cores)                             |
|      NCORE specifies how many cores store one orbital (NPAR=cpu/NCORE).     |
|      This setting can  greatly improve the performance of VASP for DFT.     |
|      The default,   NCORE=1            might be grossly inefficient         |
|      on modern multi-core architectures or massively parallel machines.     |
|      Do your own testing !!!!                                               |
|      Unfortunately you need to use the default for GW and RPA calculations. |
|      (for HF NCORE is supported but not extensively tested yet)             |
|                                                                             |
 ----------------------------------------------------------------------------- 

 LDA part: xc-table for Pade appr. of Perdew
 POSCAR found type information on POSCAR  O  C  H  Co Li
 POSCAR found :  5 types and     170 ions
 POSCAR, INCAR and KPOINTS ok, starting setup
 FFT: planning ...
 WAVECAR not read
 WARNING: random wavefunctions but no delay for mixing, default for NELMDL
 entering main loop
       N       E                     dE             d eps       ncg     rms          rms(c)
DAV:   1     0.890634229623E+04    0.89063E+04   -0.35369E+05  2104   0.137E+03
DAV:   2     0.812690776607E+03   -0.80937E+04   -0.73132E+04  2488   0.425E+02
DAV:   3    -0.128239350143E+04   -0.20951E+04   -0.19805E+04  3488   0.215E+02
DAV:   4    -0.144654614571E+04   -0.16415E+03   -0.15266E+03  3232   0.674E+01
DAV:   5    -0.145589948845E+04   -0.93533E+01   -0.85878E+01  3504   0.152E+01    0.161E+02
RMM:   6    -0.198626852105E+04   -0.53037E+03   -0.35999E+03  2881   0.136E+02    0.539E+02
RMM:   7    -0.175595097901E+04    0.23032E+03   -0.26411E+02  2114   0.461E+01    0.336E+02
RMM:   8    -0.129492056487E+04    0.46103E+03   -0.56652E+02  2304   0.485E+01    0.118E+02
RMM:   9    -0.139049137168E+04   -0.95571E+02   -0.15973E+02  2351   0.244E+01    0.164E+02
RMM:  10    -0.148171607780E+04   -0.91225E+02   -0.65179E+01  2316   0.178E+01    0.183E+02
RMM:  11    -0.134223371121E+04    0.13948E+03   -0.54889E+01  2185   0.157E+01    0.125E+02
RMM:  12    -0.141039038350E+04   -0.68157E+02   -0.63990E+01  2182   0.175E+01    0.139E+02
RMM:  13    -0.141114715624E+04   -0.75677E+00   -0.85181E+01  2153   0.202E+01    0.148E+02
RMM:  14    -0.127293304197E+04    0.13821E+03   -0.50823E+01  2335   0.141E+01    0.113E+02
RMM:  15    -0.125053309642E+04    0.22400E+02   -0.34482E+01  2310   0.108E+01    0.111E+02
RMM:  16    -0.124134810232E+04    0.91850E+01   -0.25754E+01  2297   0.926E+00    0.982E+01
RMM:  17    -0.122422199879E+04    0.17126E+02   -0.18666E+01  2271   0.878E+00    0.747E+01
RMM:  18    -0.122759561429E+04   -0.33736E+01   -0.10556E+01  2284   0.648E+00    0.823E+01
RMM:  19    -0.121933830767E+04    0.82573E+01   -0.82563E+00  2244   0.596E+00    0.620E+01
RMM:  20    -0.122528525566E+04   -0.59469E+01   -0.49368E+00  2368   0.425E+00    0.797E+01
RMM:  21    -0.121757603694E+04    0.77092E+01   -0.52889E+00  2314   0.437E+00    0.597E+01
RMM:  22    -0.121703650449E+04    0.53953E+00   -0.53464E+00  2270   0.434E+00    0.510E+01
RMM:  23    -0.121743576449E+04   -0.39926E+00   -0.25719E+00  2238   0.318E+00    0.430E+01
RMM:  24    -0.121612694525E+04    0.13088E+01   -0.67695E-01  2316   0.177E+00    0.372E+01
RMM:  25    -0.121628415444E+04   -0.15721E+00   -0.15741E-01  2319   0.776E-01    0.374E+01
RMM:  26    -0.121652086254E+04   -0.23671E+00   -0.62526E-02  2484   0.419E-01    0.366E+01
RMM:  27    -0.121657777661E+04   -0.56914E-01   -0.33789E-02  2270   0.349E-01    0.372E+01
RMM:  28    -0.121654461597E+04    0.33161E-01   -0.64657E-02  2209   0.481E-01    0.367E+01
RMM:  29    -0.121627446981E+04    0.27015E+00   -0.61837E-02  2181   0.554E-01    0.366E+01
RMM:  30    -0.121614899074E+04    0.12548E+00   -0.13168E-02  2383   0.236E-01    0.361E+01
RMM:  31    -0.121613131741E+04    0.17673E-01   -0.36346E-03  2405   0.120E-01    0.361E+01
RMM:  32    -0.121636813692E+04   -0.23682E+00   -0.93797E-02  2244   0.549E-01    0.374E+01
RMM:  33    -0.121632915315E+04    0.38984E-01   -0.46962E-02  2174   0.481E-01    0.377E+01
RMM:  34    -0.121650341138E+04   -0.17426E+00   -0.57703E-02  2220   0.453E-01    0.394E+01
RMM:  35    -0.121688361550E+04   -0.38020E+00   -0.11720E-01  2251   0.632E-01    0.427E+01
RMM:  36    -0.121634843076E+04    0.53518E+00   -0.10623E-01  2222   0.671E-01    0.402E+01
RMM:  37    -0.121752749464E+04   -0.11791E+01   -0.26322E-01  2183   0.984E-01    0.417E+01
RMM:  38    -0.121739611329E+04    0.13138E+00   -0.11549E-01  2234   0.691E-01    0.397E+01
RMM:  39    -0.121745253798E+04   -0.56425E-01   -0.23232E-02  2453   0.277E-01    0.395E+01
RMM:  40    -0.121778301770E+04   -0.33048E+00   -0.40447E-02  2281   0.345E-01    0.387E+01
RMM:  41    -0.121869477605E+04   -0.91176E+00   -0.50599E-01  2193   0.134E+00    0.409E+01
RMM:  42    -0.121853804763E+04    0.15673E+00   -0.37087E-01  2236   0.122E+00    0.351E+01
RMM:  43    -0.121878546181E+04   -0.24741E+00   -0.16735E-01  2313   0.774E-01    0.352E+01
RMM:  44    -0.121885165142E+04   -0.66190E-01   -0.40181E-02  2455   0.400E-01    0.354E+01
RMM:  45    -0.121887446086E+04   -0.22809E-01   -0.41250E-02  2371   0.366E-01    0.355E+01
RMM:  46    -0.121836415518E+04    0.51031E+00   -0.65931E-02  2271   0.444E-01    0.347E+01
RMM:  47    -0.121753373311E+04    0.83042E+00   -0.32032E-01  2236   0.910E-01    0.358E+01
RMM:  48    -0.121824164525E+04   -0.70791E+00   -0.48762E-01  2197   0.119E+00    0.363E+01
RMM:  49    -0.121935562737E+04   -0.11140E+01   -0.80596E-01  2299   0.159E+00    0.377E+01
RMM:  50    -0.121968616651E+04   -0.33054E+00   -0.41830E-01  2399   0.115E+00    0.355E+01
RMM:  51    -0.121903347829E+04    0.65269E+00   -0.68873E+00  2174   0.543E+00    0.458E+01
RMM:  52    -0.121590263632E+04    0.31308E+01   -0.16746E+00  2449   0.240E+00    0.374E+01
RMM:  53    -0.121514536478E+04    0.75727E+00   -0.68590E-01  2421   0.148E+00    0.398E+01
RMM:  54    -0.121442220721E+04    0.72316E+00   -0.39977E-01  2316   0.117E+00    0.366E+01
RMM:  55    -0.121451651982E+04   -0.94313E-01   -0.78228E-01  2263   0.168E+00    0.362E+01
RMM:  56    -0.122152405724E+04   -0.70075E+01   -0.40229E+00  2285   0.365E+00    0.462E+01
RMM:  57    -0.121955365497E+04    0.19704E+01   -0.12753E+00  2172   0.237E+00    0.383E+01
RMM:  58    -0.122146406847E+04   -0.19104E+01   -0.85771E-01  2356   0.172E+00    0.383E+01
RMM:  59    -0.122379940027E+04   -0.23353E+01   -0.81549E-01  2402   0.157E+00    0.417E+01
RMM:  60    -0.122358074063E+04    0.21866E+00   -0.41923E-01  2294   0.118E+00    0.400E+01
RMM:  61    -0.123288758843E+04   -0.93068E+01   -0.24468E+00  2239   0.307E+00    0.463E+01
RMM:  62    -0.122884529885E+04    0.40423E+01   -0.11221E+00  2201   0.230E+00    0.419E+01
RMM:  63    -0.122812090631E+04    0.72439E+00   -0.26063E-01  2480   0.882E-01    0.405E+01
RMM:  64    -0.122820499793E+04   -0.84092E-01   -0.59631E-02  2395   0.505E-01    0.406E+01
RMM:  65    -0.122850755727E+04   -0.30256E+00   -0.78317E-02  2279   0.519E-01    0.396E+01
RMM:  66    -0.123078840215E+04   -0.22808E+01   -0.85455E-01  2192   0.179E+00    0.465E+01
RMM:  67    -0.123025682046E+04    0.53158E+00   -0.18808E-01  2233   0.878E-01    0.457E+01
RMM:  68    -0.122994090081E+04    0.31592E+00   -0.68718E-02  2289   0.519E-01    0.452E+01
RMM:  69    -0.122997821943E+04   -0.37319E-01   -0.13301E-02  2292   0.232E-01    0.453E+01
RMM:  70    -0.122943196556E+04    0.54625E+00   -0.63965E-02  2204   0.497E-01    0.454E+01
RMM:  71    -0.123462401899E+04   -0.51921E+01   -0.60603E+00  2164   0.476E+00    0.684E+01
RMM:  72    -0.123316278512E+04    0.14612E+01   -0.47616E+00  2222   0.431E+00    0.517E+01
RMM:  73    -0.123034017032E+04    0.28226E+01   -0.16109E+00  2216   0.274E+00    0.367E+01
RMM:  74    -0.123089784117E+04   -0.55767E+00   -0.62546E-01  2314   0.162E+00    0.322E+01
RMM:  75    -0.123135381509E+04   -0.45597E+00   -0.30341E-01  2318   0.105E+00    0.306E+01
RMM:  76    -0.123441075034E+04   -0.30569E+01   -0.10696E+00  2266   0.199E+00    0.383E+01
RMM:  77    -0.123343826130E+04    0.97249E+00   -0.49230E-01  2267   0.146E+00    0.318E+01
RMM:  78    -0.123341320754E+04    0.25054E-01   -0.29588E-01  2386   0.998E-01    0.282E+01
RMM:  79    -0.123491072397E+04   -0.14975E+01   -0.30297E-01  2285   0.109E+00    0.354E+01
RMM:  80    -0.123416077812E+04    0.74995E+00   -0.32236E-01  2271   0.110E+00    0.244E+01
RMM:  81    -0.124345429784E+04   -0.92935E+01   -0.28828E+00  2288   0.315E+00    0.589E+01
RMM:  82    -0.123706355237E+04    0.63907E+01   -0.41070E+00  2213   0.396E+00    0.378E+01
RMM:  83    -0.123575451760E+04    0.13090E+01   -0.66026E-01  2267   0.166E+00    0.273E+01
RMM:  84    -0.123639094007E+04   -0.63642E+00   -0.37811E-01  2182   0.131E+00    0.251E+01
RMM:  85    -0.123713862423E+04   -0.74768E+00   -0.24558E-01  2347   0.911E-01    0.235E+01
RMM:  86    -0.123813425385E+04   -0.99563E+00   -0.48977E-01  2223   0.141E+00    0.369E+01
RMM:  87    -0.123704394514E+04    0.10903E+01   -0.44542E-01  2212   0.132E+00    0.257E+01
RMM:  88    -0.123809297358E+04   -0.10490E+01   -0.34939E-01  2263   0.113E+00    0.231E+01
RMM:  89    -0.123798274724E+04    0.11023E+00   -0.32738E-01  2269   0.115E+00    0.197E+01
RMM:  90    -0.123835651353E+04   -0.37377E+00   -0.23080E-01  2344   0.927E-01    0.182E+01
RMM:  91    -0.124033911940E+04   -0.19826E+01   -0.63701E-01  2223   0.160E+00    0.294E+01
RMM:  92    -0.123950370636E+04    0.83541E+00   -0.49508E-01  2230   0.144E+00    0.187E+01
RMM:  93    -0.123999954622E+04   -0.49584E+00   -0.23198E-01  2291   0.973E-01    0.162E+01
RMM:  94    -0.124100883346E+04   -0.10093E+01   -0.17131E-01  2275   0.744E-01    0.153E+01
RMM:  95    -0.124242692551E+04   -0.14181E+01   -0.27400E-01  2273   0.874E-01    0.171E+01
RMM:  96    -0.124452573555E+04   -0.20988E+01   -0.11215E+00  2262   0.213E+00    0.284E+01
RMM:  97    -0.124396273800E+04    0.56300E+00   -0.49012E-01  2266   0.150E+00    0.187E+01
RMM:  98    -0.124459591266E+04   -0.63317E+00   -0.22508E-01  2248   0.938E-01    0.171E+01
RMM:  99    -0.124583154895E+04   -0.12356E+01   -0.27615E-01  2221   0.932E-01    0.190E+01
RMM: 100    -0.124608270691E+04   -0.25116E+00   -0.12382E-01  2400   0.629E-01    0.185E+01
RMM: 101    -0.124631871586E+04   -0.23601E+00   -0.42612E-01  2214   0.120E+00    0.280E+01
RMM: 102    -0.124626312416E+04    0.55592E-01   -0.37462E-01  2242   0.114E+00    0.183E+01
RMM: 103    -0.124641030816E+04   -0.14718E+00   -0.17297E-01  2172   0.919E-01    0.155E+01
RMM: 104    -0.124674754052E+04   -0.33723E+00   -0.10181E-01  2312   0.640E-01    0.147E+01
RMM: 105    -0.124692574180E+04   -0.17820E+00   -0.39030E-02  2423   0.374E-01    0.144E+01
RMM: 106    -0.124753473737E+04   -0.60900E+00   -0.32700E-01  2275   0.108E+00    0.205E+01
RMM: 107    -0.124754618240E+04   -0.11445E-01   -0.14120E-01  2201   0.805E-01    0.163E+01
RMM: 108    -0.124757024274E+04   -0.24060E-01   -0.46312E-02  2371   0.414E-01    0.153E+01
RMM: 109    -0.124759542511E+04   -0.25182E-01   -0.64608E-02  2295   0.503E-01    0.130E+01
RMM: 110    -0.124827474082E+04   -0.67932E+00   -0.12054E-01  2168   0.693E-01    0.121E+01
RMM: 111    -0.124844332363E+04   -0.16858E+00   -0.85265E-02  2291   0.578E-01    0.126E+01
RMM: 112    -0.124903628219E+04   -0.59296E+00   -0.11430E-01  2298   0.595E-01    0.120E+01
RMM: 113    -0.124921434423E+04   -0.17806E+00   -0.55578E-02  2362   0.441E-01    0.132E+01
RMM: 114    -0.124917840696E+04    0.35937E-01   -0.17733E-02  2473   0.268E-01    0.138E+01
RMM: 115    -0.124929692216E+04   -0.11852E+00   -0.14579E-02  2400   0.226E-01    0.141E+01
RMM: 116    -0.124975457679E+04   -0.45765E+00   -0.11530E-01  2258   0.631E-01    0.158E+01
RMM: 117    -0.124978442311E+04   -0.29846E-01   -0.43079E-02  2226   0.463E-01    0.154E+01
RMM: 118    -0.124979972877E+04   -0.15306E-01   -0.16727E-02  2345   0.277E-01    0.169E+01
RMM: 119    -0.124979893761E+04    0.79116E-03   -0.49373E-03  2386   0.138E-01    0.172E+01
RMM: 120    -0.124983047617E+04   -0.31539E-01   -0.35386E-03  2257   0.114E-01
   1 F= -.12585233E+04 E0= -.12585025E+04  d E =-.125852E+04  mag=    25.8094
 curvature:   0.00 expect dE= 0.000E+00 dE for cont linesearch  0.000E+00
 trial: gam= 0.00000 g(F)=  0.474E+00 g(S)=  0.332E+00 ort = 0.000E+00 (trialstep = 0.100E+01)
 search vector abs. value=  0.806E+00
 bond charge predicted
       N       E                     dE             d eps       ncg     rms          rms(c)
DAV:   1    -0.125212440077E+04   -0.23255E+01   -0.20281E+02  2328   0.341E+01    0.393E+01
RMM:   2    -0.143021667501E+04   -0.17809E+03   -0.19254E+02  2251   0.284E+01    0.185E+02
RMM:   3    -0.132736365487E+04    0.10285E+03   -0.65735E+01  2113   0.213E+01    0.125E+02
RMM:   4    -0.127920527392E+04    0.48158E+02   -0.17551E+01  2162   0.954E+00    0.768E+01
RMM:   5    -0.128476615612E+04   -0.55609E+01   -0.14332E+01  2187   0.843E+00    0.990E+01
RMM:   6    -0.125935948659E+04    0.25407E+02   -0.14613E+01  2288   0.767E+00    0.626E+01
RMM:   7    -0.125334833407E+04    0.60112E+01   -0.82927E+00  2356   0.543E+00    0.500E+01
RMM:   8    -0.125194075977E+04    0.14076E+01   -0.38389E+00  2317   0.378E+00    0.383E+01
RMM:   9    -0.125048016043E+04    0.14606E+01   -0.21475E+00  2308   0.305E+00    0.327E+01
RMM:  10    -0.125043804111E+04    0.42119E-01   -0.11699E+00  2284   0.224E+00    0.227E+01
RMM:  11    -0.125022823199E+04    0.20981E+00   -0.80436E-01  2252   0.193E+00    0.152E+01
RMM:  12    -0.125032229488E+04   -0.94063E-01   -0.42153E-01  2265   0.148E+00    0.127E+01
RMM:  13    -0.125044204433E+04   -0.11975E+00   -0.22007E-01  2335   0.977E-01    0.947E+00
RMM:  14    -0.125057441507E+04   -0.13237E+00   -0.10921E-01  2265   0.754E-01    0.101E+01
RMM:  15    -0.125064599720E+04   -0.71582E-01   -0.50809E-02  2339   0.475E-01    0.978E+00
RMM:  16    -0.125102086542E+04   -0.37487E+00   -0.20169E-01  2270   0.877E-01    0.125E+01
RMM:  17    -0.125101779539E+04    0.30700E-02   -0.11951E-01  2271   0.771E-01    0.109E+01
RMM:  18    -0.125109167066E+04   -0.73875E-01   -0.69610E-02  2410   0.522E-01    0.996E+00
RMM:  19    -0.125116413680E+04   -0.72466E-01   -0.64194E-02  2359   0.486E-01    0.880E+00
RMM:  20    -0.125123946769E+04   -0.75331E-01   -0.11608E-01  2325   0.661E-01    0.799E+00
RMM:  21    -0.125128216169E+04   -0.42694E-01   -0.15277E-01  2352   0.784E-01    0.665E+00
RMM:  22    -0.125139632009E+04   -0.11416E+00   -0.12934E-01  2333   0.718E-01    0.807E+00
RMM:  23    -0.125138450315E+04    0.11817E-01   -0.31856E-02  2492   0.315E-01    0.735E+00
RMM:  24    -0.125138082193E+04    0.36812E-02   -0.17939E-02  2330   0.267E-01    0.457E+00
RMM:  25    -0.125155820137E+04   -0.17738E+00   -0.45023E-02  2236   0.427E-01    0.663E+00
RMM:  26    -0.125161258806E+04   -0.54387E-01   -0.40417E-02  2355   0.409E-01    0.427E+00
RMM:  27    -0.125171442822E+04   -0.10184E+00   -0.18425E-02  2316   0.270E-01    0.393E+00
RMM:  28    -0.125179394061E+04   -0.79512E-01   -0.13929E-02  2400   0.225E-01    0.373E+00
RMM:  29    -0.125190174601E+04   -0.10781E+00   -0.11498E-02  2312   0.201E-01    0.303E+00
RMM:  30    -0.125201059487E+04   -0.10885E+00   -0.11401E-02  2401   0.196E-01    0.255E+00
RMM:  31    -0.125211605789E+04   -0.10546E+00   -0.82958E-03  2409   0.158E-01    0.274E+00
RMM:  32    -0.125216470211E+04   -0.48644E-01   -0.43706E-03  2357   0.128E-01    0.236E+00
RMM:  33    -0.125230355450E+04   -0.13885E+00   -0.57799E-03  2332   0.105E-01    0.214E+00
RMM:  34    -0.125249311576E+04   -0.18956E+00   -0.10780E-02  2412   0.143E-01    0.191E+00
RMM:  35    -0.125259097809E+04   -0.97862E-01   -0.52889E-03  2611   0.100E-01    0.189E+00
RMM:  36    -0.125263684048E+04   -0.45862E-01   -0.18667E-03  2634   0.591E-02    0.182E+00
RMM:  37    -0.125274860686E+04   -0.11177E+00   -0.36669E-03  2224   0.782E-02    0.181E+00
RMM:  38    -0.125291128649E+04   -0.16268E+00   -0.74303E-03  2461   0.984E-02    0.211E+00
RMM:  39    -0.125293042830E+04   -0.19142E-01   -0.12401E-03  2452   0.561E-02    0.211E+00
RMM:  40    -0.125295303865E+04   -0.22610E-01   -0.71706E-04  2551   0.264E-02    0.201E+00
RMM:  41    -0.125301505310E+04   -0.62014E-01   -0.14810E-03  2326   0.514E-02    0.243E+00
RMM:  42    -0.125304614201E+04   -0.31089E-01   -0.94262E-04  2627   0.423E-02    0.231E+00
RMM:  43    -0.125310578600E+04   -0.59644E-01   -0.20497E-03  2330   0.524E-02    0.220E+00
RMM:  44    -0.125311579701E+04   -0.10011E-01   -0.39100E-04  2350   0.320E-02    0.221E+00
RMM:  45    -0.125312359878E+04   -0.78018E-02   -0.24063E-04  2545   0.162E-02    0.230E+00
RMM:  46    -0.125312660914E+04   -0.30104E-02   -0.55112E-05  2100   0.126E-02    0.230E+00
RMM:  47    -0.125314326306E+04   -0.16654E-01   -0.60509E-04  2292   0.425E-02    0.234E+00
RMM:  48    -0.125314339890E+04   -0.13583E-03   -0.16027E-04  2278   0.251E-02    0.230E+00
RMM:  49    -0.125314350735E+04   -0.10846E-03   -0.16218E-04  2180   0.268E-02    0.232E+00
RMM:  50    -0.125313713815E+04    0.63692E-02   -0.19631E-04  2116   0.236E-02    0.227E+00
RMM:  51    -0.125313670335E+04    0.43480E-03   -0.64365E-05  2058   0.155E-02    0.230E+00
RMM:  52    -0.125278018737E+04    0.35652E+00   -0.78151E-02  2197   0.409E-01    0.247E+00
RMM:  53    -0.125277011457E+04    0.10073E-01   -0.99415E-03  2313   0.175E-01    0.246E+00
RMM:  54    -0.125282323073E+04   -0.53116E-01   -0.17926E-03  2410   0.712E-02    0.258E+00
RMM:  55    -0.125282104060E+04    0.21901E-02   -0.43530E-04  2388   0.333E-02    0.267E+00
RMM:  56    -0.125282352164E+04   -0.24810E-02   -0.19766E-04  2240   0.245E-02    0.254E+00
RMM:  57    -0.125273266869E+04    0.90853E-01   -0.32549E-03  2189   0.920E-02    0.244E+00
RMM:  58    -0.125273759755E+04   -0.49289E-02   -0.67459E-04  2286   0.512E-02    0.241E+00
RMM:  59    -0.125273610830E+04    0.14892E-02   -0.16179E-04  2555   0.169E-02    0.240E+00
RMM:  60    -0.125273789463E+04   -0.17863E-02   -0.23475E-05  1883   0.908E-03    0.238E+00
RMM:  61    -0.125274661863E+04   -0.87240E-02   -0.76673E-05  2094   0.152E-02    0.233E+00
RMM:  62    -0.125271641830E+04    0.30200E-01   -0.14062E-03  2207   0.726E-02    0.237E+00
RMM:  63    -0.125274302542E+04   -0.26607E-01   -0.60571E-04  2187   0.482E-02    0.225E+00
RMM:  64    -0.125280949502E+04   -0.66470E-01   -0.16625E-03  2228   0.598E-02    0.215E+00
RMM:  65    -0.125296028901E+04   -0.15079E+00   -0.87053E-03  2296   0.128E-01    0.224E+00
RMM:  66    -0.125307001156E+04   -0.10972E+00   -0.84079E-03  2517   0.116E-01    0.244E+00
RMM:  67    -0.125311278151E+04   -0.42770E-01   -0.40211E-03  2460   0.103E-01    0.416E+00
RMM:  68    -0.125311046815E+04    0.23134E-02   -0.23426E-03  2291   0.103E-01    0.475E+00
RMM:  69    -0.125313196259E+04   -0.21494E-01   -0.15811E-03  2354   0.753E-02    0.654E+00
RMM:  70    -0.125313108541E+04    0.87718E-03   -0.17261E-03  2169   0.884E-02    0.737E+00
RMM:  71    -0.125311938619E+04    0.11699E-01   -0.33395E-03  2308   0.880E-02    0.472E+00
RMM:  72    -0.125314544848E+04   -0.26062E-01   -0.28589E-03  2318   0.114E-01    0.354E+00
RMM:  73    -0.125318533326E+04   -0.39885E-01   -0.36936E-03  2334   0.116E-01    0.335E+00
RMM:  74    -0.125319605018E+04   -0.10717E-01   -0.17459E-03  2446   0.844E-02    0.326E+00
RMM:  75    -0.125319748132E+04   -0.14311E-02   -0.72801E-04  2533   0.494E-02    0.327E+00
RMM:  76    -0.125319694640E+04    0.53492E-03   -0.20788E-04  2290   0.240E-02    0.330E+00
RMM:  77    -0.125318849514E+04    0.84513E-02   -0.45957E-04  2245   0.378E-02    0.322E+00
RMM:  78    -0.125319263306E+04   -0.41379E-02   -0.44268E-04  2330   0.403E-02    0.322E+00
RMM:  79    -0.125318188708E+04    0.10746E-01   -0.14198E-03  2265   0.621E-02    0.293E+00
RMM:  80    -0.125318519917E+04   -0.33121E-02   -0.10077E-03  2519   0.485E-02    0.292E+00
RMM:  81    -0.125319341164E+04   -0.82125E-02   -0.12704E-03  2396   0.532E-02    0.301E+00
RMM:  82    -0.125318655169E+04    0.68599E-02   -0.18647E-03  2425   0.682E-02    0.348E+00
RMM:  83    -0.125318621603E+04    0.33566E-03   -0.73919E-04  2373   0.479E-02    0.360E+00
RMM:  84    -0.125318599972E+04    0.21632E-03   -0.35764E-04  2500   0.334E-02    0.376E+00
RMM:  85    -0.125318579464E+04    0.20508E-03   -0.13142E-04  2150   0.228E-02    0.388E+00
RMM:  86    -0.125318655650E+04   -0.76187E-03   -0.14093E-04  2059   0.210E-02    0.383E+00
RMM:  87    -0.125319293032E+04   -0.63738E-02   -0.77713E-04  2224   0.453E-02    0.415E+00
RMM:  88    -0.125319477265E+04   -0.18423E-02   -0.30343E-04  2448   0.311E-02    0.414E+00
RMM:  89    -0.125320234613E+04   -0.75735E-02   -0.12334E-03  2356   0.546E-02    0.423E+00
RMM:  90    -0.125320278728E+04   -0.44114E-03   -0.43740E-04  2452   0.415E-02    0.418E+00
RMM:  91    -0.125320197765E+04    0.80962E-03   -0.80603E-05  2148   0.177E-02    0.418E+00
RMM:  92    -0.125319698812E+04    0.49895E-02   -0.13541E-02  2175   0.178E-01    0.607E+00
RMM:  93    -0.125320673892E+04   -0.97508E-02   -0.28773E-03  2286   0.113E-01    0.856E+00
RMM:  94    -0.125319907787E+04    0.76611E-02   -0.36474E-03  2138   0.125E-01    0.903E+00
RMM:  95    -0.125318514632E+04    0.13932E-01   -0.14867E-03  2142   0.812E-02    0.105E+01
RMM:  96    -0.125317067990E+04    0.14466E-01   -0.18222E-03  2122   0.862E-02    0.105E+01
RMM:  97    -0.125315028867E+04    0.20391E-01   -0.15382E-03  2220   0.688E-02    0.112E+01
RMM:  98    -0.125314374115E+04    0.65475E-02   -0.38900E-04  2339   0.383E-02    0.116E+01
RMM:  99    -0.125315899263E+04   -0.15251E-01   -0.29897E-04  2193   0.334E-02    0.122E+01
RMM: 100    -0.125315308738E+04    0.59053E-02   -0.39211E-04  2301   0.358E-02    0.123E+01
RMM: 101    -0.125314804866E+04    0.50387E-02   -0.29554E-04  2402   0.284E-02    0.122E+01
RMM: 102    -0.125311478227E+04    0.33266E-01   -0.46640E-04  2374   0.401E-02    0.114E+01
RMM: 103    -0.125311817131E+04   -0.33890E-02   -0.32809E-04  2253   0.376E-02    0.109E+01
RMM: 104    -0.125311673665E+04    0.14347E-02   -0.33867E-04  2355   0.371E-02    0.991E+00
RMM: 105    -0.125312049631E+04   -0.37597E-02   -0.77934E-04  2220   0.576E-02    0.895E+00
RMM: 106    -0.125312406333E+04   -0.35670E-02   -0.13175E-03  2228   0.704E-02    0.741E+00
RMM: 107    -0.125314290686E+04   -0.18844E-01   -0.45653E-03  2249   0.133E-01    0.444E+00
RMM: 108    -0.125319605792E+04   -0.53151E-01   -0.68330E-03  2207   0.177E-01    0.350E+00
RMM: 109    -0.125320897391E+04   -0.12916E-01   -0.47792E-03  2186   0.142E-01    0.393E+00
RMM: 110    -0.125320601039E+04    0.29635E-02   -0.16451E-03  2282   0.730E-02    0.432E+00
RMM: 111    -0.125320174245E+04    0.42679E-02   -0.51138E-04  2210   0.469E-02    0.455E+00
RMM: 112    -0.125322585884E+04   -0.24116E-01   -0.74331E-03  2262   0.146E-01    0.438E+00
RMM: 113    -0.125323590245E+04   -0.10044E-01   -0.35910E-03  2459   0.992E-02    0.449E+00
RMM: 114    -0.125325274284E+04   -0.16840E-01   -0.25325E-03  2652   0.697E-02    0.459E+00
RMM: 115    -0.125326332125E+04   -0.10578E-01   -0.13544E-03  2656   0.474E-02    0.464E+00
RMM: 116    -0.125327236046E+04   -0.90392E-02   -0.86111E-04  2663   0.390E-02    0.463E+00
RMM: 117    -0.125327560928E+04   -0.32488E-02   -0.50172E-03  2338   0.119E-01    0.422E+00
RMM: 118    -0.125327829066E+04   -0.26814E-02   -0.11564E-03  2383   0.605E-02    0.419E+00
RMM: 119    -0.125328306749E+04   -0.47768E-02   -0.91923E-04  2672   0.448E-02    0.410E+00
RMM: 120    -0.125330991958E+04   -0.26852E-01   -0.16882E-03  2475   0.631E-02
   2 F= -.12619039E+04 E0= -.12618995E+04  d E =-.338061E+01  mag=    21.9794
 trial-energy change:   -3.380612  1 .order    0.175938   -0.805821    1.157697
 step:   0.4104(harm=  0.4104)  dis= 0.01500  next Energy= -1258.688663 (dE=-0.165E+00)
 bond charge predicted
       N       E                     dE             d eps       ncg     rms          rms(c)
DAV:   1    -0.125390739396E+04   -0.62433E+00   -0.68407E+01  2264   0.190E+01    0.771E+00
RMM:   2    -0.125453973513E+04   -0.63234E+00   -0.30799E+00  2181   0.413E+00    0.265E+01
RMM:   3    -0.125389826914E+04    0.64147E+00   -0.99310E-01  2273   0.216E+00    0.123E+01
RMM:   4    -0.125461523847E+04   -0.71697E+00   -0.90802E-01  2410   0.189E+00    0.247E+01
RMM:   5    -0.125401709299E+04    0.59815E+00   -0.29554E-01  2336   0.125E+00    0.213E+01
RMM:   6    -0.125393497313E+04    0.82120E-01   -0.33513E-01  2359   0.109E+00    0.157E+01
RMM:   7    -0.125368661472E+04    0.24836E+00   -0.24377E-01  2344   0.106E+00    0.632E+00
RMM:   8    -0.125378693583E+04   -0.10032E+00   -0.16991E-01  2276   0.875E-01    0.723E+00
RMM:   9    -0.125373058546E+04    0.56350E-01   -0.59384E-02  2425   0.495E-01    0.502E+00
RMM:  10    -0.125371954941E+04    0.11036E-01   -0.40716E-02  2345   0.398E-01    0.454E+00
RMM:  11    -0.125364917758E+04    0.70372E-01   -0.48475E-02  2324   0.415E-01    0.470E+00
RMM:  12    -0.125358856420E+04    0.60613E-01   -0.97365E-02  2313   0.620E-01    0.466E+00
RMM:  13    -0.125355032301E+04    0.38241E-01   -0.71772E-02  2419   0.511E-01    0.711E+00
RMM:  14    -0.125349339543E+04    0.56928E-01   -0.41061E-02  2252   0.446E-01    0.551E+00
RMM:  15    -0.125350508097E+04   -0.11686E-01   -0.20195E-02  2309   0.293E-01    0.338E+00
RMM:  16    -0.125351808896E+04   -0.13008E-01   -0.17914E-02  2358   0.277E-01    0.244E+00
RMM:  17    -0.125349901900E+04    0.19070E-01   -0.99419E-03  2348   0.214E-01    0.186E+00
RMM:  18    -0.125349459969E+04    0.44193E-02   -0.37068E-03  2371   0.112E-01    0.177E+00
RMM:  19    -0.125349725089E+04   -0.26512E-02   -0.15136E-03  2378   0.749E-02    0.174E+00
RMM:  20    -0.125350077369E+04   -0.35228E-02   -0.10040E-03  2390   0.539E-02    0.167E+00
RMM:  21    -0.125351453048E+04   -0.13757E-01   -0.43540E-03  2204   0.126E-01    0.157E+00
RMM:  22    -0.125353984687E+04   -0.25316E-01   -0.10293E-02  2176   0.196E-01    0.128E+00
RMM:  23    -0.125356179207E+04   -0.21945E-01   -0.11722E-02  2253   0.212E-01    0.110E+00
RMM:  24    -0.125358027619E+04   -0.18484E-01   -0.70708E-03  2362   0.162E-01    0.941E-01
RMM:  25    -0.125358948369E+04   -0.92075E-02   -0.32092E-03  2365   0.108E-01    0.927E-01
RMM:  26    -0.125359580271E+04   -0.63190E-02   -0.19352E-03  2307   0.836E-02    0.768E-01
RMM:  27    -0.125360477625E+04   -0.89735E-02   -0.20888E-03  2272   0.796E-02    0.721E-01
RMM:  28    -0.125361701963E+04   -0.12243E-01   -0.99503E-04  2345   0.514E-02    0.616E-01
RMM:  29    -0.125364346081E+04   -0.26441E-01   -0.14152E-03  2174   0.644E-02    0.511E-01
RMM:  30    -0.125368494150E+04   -0.41481E-01   -0.20360E-03  2254   0.670E-02    0.396E-01
RMM:  31    -0.125372249600E+04   -0.37555E-01   -0.23656E-03  2415   0.699E-02    0.337E-01
RMM:  32    -0.125374951616E+04   -0.27020E-01   -0.12407E-03  2498   0.446E-02    0.282E-01
RMM:  33    -0.125377504929E+04   -0.25533E-01   -0.11115E-03  2417   0.425E-02    0.195E-01
RMM:  34    -0.125380578687E+04   -0.30738E-01   -0.14941E-03  2480   0.405E-02    0.161E-01
RMM:  35    -0.125382470045E+04   -0.18914E-01   -0.94443E-04  2639   0.317E-02    0.131E-01
RMM:  36    -0.125384041464E+04   -0.15714E-01   -0.88434E-04  2409   0.286E-02    0.123E-01
RMM:  37    -0.125384949948E+04   -0.90848E-02   -0.56144E-04  2575   0.241E-02    0.101E-01
RMM:  38    -0.125385599554E+04   -0.64961E-02   -0.45587E-04  2435   0.186E-02    0.745E-02
RMM:  39    -0.125385894122E+04   -0.29457E-02   -0.19497E-04  2372   0.150E-02    0.608E-02
RMM:  40    -0.125386071388E+04   -0.17727E-02   -0.12634E-04  2341   0.980E-03    0.424E-02
RMM:  41    -0.125386188097E+04   -0.11671E-02   -0.78409E-05  2293   0.867E-03    0.324E-02
RMM:  42    -0.125386235764E+04   -0.47667E-03   -0.37343E-05  2090   0.570E-03    0.266E-02
RMM:  43    -0.125386250791E+04   -0.15028E-03   -0.89977E-06  1724   0.445E-03    0.213E-02
RMM:  44    -0.125386260281E+04   -0.94897E-04   -0.64244E-06  1620   0.289E-03    0.184E-02
RMM:  45    -0.125386272814E+04   -0.12533E-03   -0.72788E-06  1677   0.337E-03    0.142E-02
RMM:  46    -0.125386278425E+04   -0.56103E-04   -0.40584E-06  1510   0.244E-03    0.110E-02
RMM:  47    -0.125386282082E+04   -0.36576E-04   -0.34120E-06  1446   0.249E-03    0.846E-03
RMM:  48    -0.125386283283E+04   -0.12006E-04   -0.17170E-06  1338   0.196E-03    0.545E-03
RMM:  49    -0.125386284149E+04   -0.86578E-05   -0.10908E-06  1253   0.159E-03    0.399E-03
RMM:  50    -0.125386284752E+04   -0.60288E-05   -0.82606E-07  1229   0.137E-03    0.261E-03
RMM:  51    -0.125386285181E+04   -0.42971E-05   -0.56631E-07  1169   0.113E-03    0.220E-03
RMM:  52    -0.125386285464E+04   -0.28294E-05   -0.41044E-07  1126   0.938E-04    0.164E-03
RMM:  53    -0.125386285766E+04   -0.30137E-05   -0.30763E-07  1071   0.799E-04    0.126E-03
RMM:  54    -0.125386286108E+04   -0.34230E-05   -0.27805E-07  1091   0.730E-04    0.813E-04
RMM:  55    -0.125386286354E+04   -0.24650E-05   -0.21994E-07  1009   0.663E-04    0.441E-04
RMM:  56    -0.125386286523E+04   -0.16912E-05   -0.17044E-07   954   0.566E-04    0.301E-04
RMM:  57    -0.125386286638E+04   -0.11441E-05   -0.11802E-07   840   0.505E-04    0.324E-04
RMM:  58    -0.125386286761E+04   -0.12321E-05   -0.10009E-07   832   0.445E-04    0.305E-04
RMM:  59    -0.125386286846E+04   -0.84534E-06   -0.75714E-08   780   0.433E-04
   3 F= -.12625150E+04 E0= -.12625099E+04  d E =-.399171E+01  mag=    20.1404
 curvature:  -0.21 expect dE=-0.157E+00 dE for cont linesearch -0.592E-01
 ZBRENT: interpolating
 opt :   0.2568  next Energy= -1262.552063 (dE=-0.403E+01)
 bond charge predicted
       N       E                     dE             d eps       ncg     rms          rms(c)
DAV:   1    -0.125391726849E+04   -0.54401E-01   -0.46729E+00  2288   0.498E+00    0.160E+00
RMM:   2    -0.125391031286E+04    0.69556E-02   -0.17098E-01  2175   0.989E-01    0.147E+00
RMM:   3    -0.125391223089E+04   -0.19180E-02   -0.42098E-02  2477   0.470E-01    0.150E+00
RMM:   4    -0.125391049133E+04    0.17396E-02   -0.22036E-02  2515   0.312E-01    0.159E+00
RMM:   5    -0.125390840486E+04    0.20865E-02   -0.98829E-03  2377   0.208E-01    0.132E+00
RMM:   6    -0.125390518491E+04    0.32200E-02   -0.51008E-03  2359   0.149E-01    0.584E-01
RMM:   7    -0.125390584168E+04   -0.65677E-03   -0.28933E-03  2370   0.113E-01    0.521E-01
RMM:   8    -0.125390537600E+04    0.46567E-03   -0.14984E-03  2479   0.816E-02    0.354E-01
RMM:   9    -0.125390530414E+04    0.71865E-04   -0.93067E-04  2363   0.643E-02    0.258E-01
RMM:  10    -0.125390521086E+04    0.93273E-04   -0.43599E-04  2450   0.459E-02    0.150E-01
RMM:  11    -0.125390520565E+04    0.52157E-05   -0.19794E-04  2350   0.302E-02    0.108E-01
RMM:  12    -0.125390525131E+04   -0.45657E-04   -0.10503E-04  2384   0.202E-02    0.110E-01
RMM:  13    -0.125390526786E+04   -0.16557E-04   -0.58120E-05  2011   0.165E-02    0.622E-02
RMM:  14    -0.125390529940E+04   -0.31541E-04   -0.17260E-05  1692   0.938E-03    0.521E-02
RMM:  15    -0.125390530672E+04   -0.73151E-05   -0.94563E-06  1596   0.662E-03    0.509E-02
RMM:  16    -0.125390530793E+04   -0.12098E-05   -0.45320E-06  1479   0.454E-03    0.447E-02
RMM:  17    -0.125390531656E+04   -0.86303E-05   -0.45822E-06  1500   0.449E-03    0.369E-02
RMM:  18    -0.125390533954E+04   -0.22977E-04   -0.93871E-06  1639   0.620E-03    0.327E-02
RMM:  19    -0.125390537419E+04   -0.34657E-04   -0.95486E-06  1629   0.654E-03    0.285E-02
RMM:  20    -0.125390540509E+04   -0.30900E-04   -0.70261E-06  1556   0.572E-03    0.240E-02
RMM:  21    -0.125390542245E+04   -0.17359E-04   -0.41842E-06  1440   0.459E-03    0.172E-02
RMM:  22    -0.125390543783E+04   -0.15377E-04   -0.16570E-06  1319   0.291E-03    0.109E-02
RMM:  23    -0.125390546458E+04   -0.26751E-04   -0.16526E-06  1333   0.255E-03    0.844E-03
RMM:  24    -0.125390549093E+04   -0.26350E-04   -0.11421E-06  1282   0.206E-03    0.649E-03
RMM:  25    -0.125390551740E+04   -0.26475E-04   -0.10093E-06  1269   0.170E-03    0.437E-03
RMM:  26    -0.125390554584E+04   -0.28431E-04   -0.11631E-06  1294   0.162E-03    0.411E-03
RMM:  27    -0.125390556131E+04   -0.15477E-04   -0.78975E-07  1194   0.139E-03    0.290E-03
RMM:  28    -0.125390557402E+04   -0.12710E-04   -0.63518E-07  1144   0.115E-03    0.247E-03
RMM:  29    -0.125390558995E+04   -0.15926E-04   -0.68956E-07  1179   0.108E-03    0.184E-03
RMM:  30    -0.125390560691E+04   -0.16964E-04   -0.76791E-07  1169   0.111E-03    0.171E-03
RMM:  31    -0.125390561740E+04   -0.10484E-04   -0.64988E-07  1105   0.103E-03    0.130E-03
RMM:  32    -0.125390562696E+04   -0.95625E-05   -0.58819E-07  1075   0.926E-04    0.109E-03
RMM:  33    -0.125390563620E+04   -0.92366E-05   -0.59176E-07  1104   0.937E-04    0.786E-04
RMM:  34    -0.125390564483E+04   -0.86305E-05   -0.64643E-07  1125   0.909E-04    0.731E-04
RMM:  35    -0.125390565092E+04   -0.60937E-05   -0.57013E-07  1087   0.919E-04    0.633E-04
RMM:  36    -0.125390565409E+04   -0.31737E-05   -0.44098E-07  1012   0.816E-04    0.473E-04
RMM:  37    -0.125390565617E+04   -0.20759E-05   -0.33253E-07   967   0.733E-04    0.364E-04
RMM:  38    -0.125390565784E+04   -0.16697E-05   -0.26125E-07   929   0.646E-04    0.340E-04
RMM:  39    -0.125390565928E+04   -0.14440E-05   -0.22171E-07   961   0.605E-04    0.213E-04
RMM:  40    -0.125390565983E+04   -0.54459E-06   -0.15119E-07   846   0.528E-04
   4 F= -.12625730E+04 E0= -.12625681E+04  d E =-.404971E+01  mag=    20.1312
 curvature:  -0.13 expect dE=-0.456E-01 dE for cont linesearch -0.121E-01
 ZBRENT: interpolating
 opt :   0.1042  next Energy= -1262.599382 (dE=-0.408E+01)
 bond charge predicted
       N       E                     dE             d eps       ncg     rms          rms(c)
DAV:   1    -0.125392791312E+04   -0.22254E-01   -0.46098E+00  2272   0.495E+00    0.159E+00
RMM:   2    -0.125392104162E+04    0.68715E-02   -0.16876E-01  2177   0.982E-01    0.146E+00
RMM:   3    -0.125392295945E+04   -0.19178E-02   -0.41267E-02  2481   0.466E-01    0.150E+00
RMM:   4    -0.125392146335E+04    0.14961E-02   -0.21640E-02  2512   0.310E-01    0.164E+00
RMM:   5    -0.125391919297E+04    0.22704E-02   -0.10051E-02  2393   0.206E-01    0.132E+00
RMM:   6    -0.125391597137E+04    0.32216E-02   -0.52165E-03  2335   0.154E-01    0.544E-01
RMM:   7    -0.125391670114E+04   -0.72977E-03   -0.28387E-03  2383   0.111E-01    0.525E-01
RMM:   8    -0.125391616374E+04    0.53740E-03   -0.14893E-03  2476   0.810E-02    0.340E-01
RMM:   9    -0.125391612785E+04    0.35886E-04   -0.91643E-04  2370   0.637E-02    0.257E-01
RMM:  10    -0.125391602606E+04    0.10179E-03   -0.43319E-04  2451   0.452E-02    0.151E-01
RMM:  11    -0.125391601912E+04    0.69403E-05   -0.19221E-04  2349   0.298E-02    0.110E-01
RMM:  12    -0.125391605879E+04   -0.39667E-04   -0.10183E-04  2371   0.201E-02    0.105E-01
RMM:  13    -0.125391607638E+04   -0.17591E-04   -0.54714E-05  1991   0.160E-02    0.589E-02
RMM:  14    -0.125391610689E+04   -0.30514E-04   -0.16863E-05  1685   0.923E-03    0.495E-02
RMM:  15    -0.125391611559E+04   -0.86973E-05   -0.91483E-06  1590   0.663E-03    0.493E-02
RMM:  16    -0.125391611735E+04   -0.17550E-05   -0.45840E-06  1484   0.456E-03    0.420E-02
RMM:  17    -0.125391612641E+04   -0.90605E-05   -0.43225E-06  1485   0.434E-03    0.343E-02
RMM:  18    -0.125391615284E+04   -0.26430E-04   -0.90520E-06  1640   0.597E-03    0.278E-02
RMM:  19    -0.125391618997E+04   -0.37138E-04   -0.92170E-06  1628   0.627E-03    0.219E-02
RMM:  20    -0.125391622092E+04   -0.30945E-04   -0.46680E-06  1477   0.468E-03    0.221E-02
RMM:  21    -0.125391623340E+04   -0.12477E-04   -0.32367E-06  1417   0.403E-03    0.185E-02
RMM:  22    -0.125391624589E+04   -0.12494E-04   -0.16357E-06  1329   0.297E-03    0.106E-02
RMM:  23    -0.125391627148E+04   -0.25589E-04   -0.14488E-06  1312   0.234E-03    0.801E-03
RMM:  24    -0.125391629707E+04   -0.25593E-04   -0.10601E-06  1277   0.199E-03    0.628E-03
RMM:  25    -0.125391632445E+04   -0.27382E-04   -0.10373E-06  1276   0.168E-03    0.415E-03
RMM:  26    -0.125391635184E+04   -0.27387E-04   -0.10880E-06  1287   0.159E-03    0.387E-03
RMM:  27    -0.125391636602E+04   -0.14183E-04   -0.74197E-07  1174   0.134E-03    0.262E-03
RMM:  28    -0.125391637905E+04   -0.13025E-04   -0.61172E-07  1134   0.111E-03    0.232E-03
RMM:  29    -0.125391639497E+04   -0.15924E-04   -0.66776E-07  1178   0.108E-03    0.175E-03
RMM:  30    -0.125391641193E+04   -0.16960E-04   -0.78608E-07  1161   0.109E-03    0.163E-03
RMM:  31    -0.125391642161E+04   -0.96761E-05   -0.60347E-07  1089   0.102E-03    0.123E-03
RMM:  32    -0.125391643088E+04   -0.92697E-05   -0.59398E-07  1076   0.898E-04    0.103E-03
RMM:  33    -0.125391644058E+04   -0.97059E-05   -0.59347E-07  1113   0.943E-04    0.772E-04
RMM:  34    -0.125391644906E+04   -0.84806E-05   -0.66197E-07  1124   0.914E-04    0.659E-04
RMM:  35    -0.125391645426E+04   -0.51928E-05   -0.53830E-07  1061   0.915E-04    0.584E-04
RMM:  36    -0.125391645709E+04   -0.28341E-05   -0.42069E-07  1017   0.785E-04    0.424E-04
RMM:  37    -0.125391645911E+04   -0.20190E-05   -0.31526E-07   957   0.722E-04    0.376E-04
RMM:  38    -0.125391646067E+04   -0.15555E-05   -0.25336E-07   927   0.627E-04    0.281E-04
RMM:  39    -0.125391646198E+04   -0.13120E-05   -0.20178E-07   942   0.592E-04    0.203E-04
RMM:  40    -0.125391646243E+04   -0.45322E-06   -0.13460E-07   828   0.510E-04
   5 F= -.12625989E+04 E0= -.12625942E+04  d E =-.407563E+01  mag=    20.1221
 curvature:  -0.28 expect dE=-0.390E-01 dE for cont linesearch -0.153E-02
 ZBRENT: interpolating
 opt :   0.0661  next Energy= -1262.600478 (dE=-0.408E+01)
 bond charge predicted
       N       E                     dE             d eps       ncg     rms          rms(c)
DAV:   1    -0.125391486373E+04    0.15983E-02   -0.28838E-01  2304   0.124E+00    0.397E-01
RMM:   2    -0.125391431013E+04    0.55360E-03   -0.10499E-02  2176   0.245E-01    0.366E-01
RMM:   3    -0.125391452854E+04   -0.21841E-03   -0.25606E-03  2470   0.117E-01    0.384E-01
RMM:   4    -0.125391442701E+04    0.10153E-03   -0.13485E-03  2516   0.779E-02    0.419E-01
RMM:   5    -0.125391428180E+04    0.14521E-03   -0.65849E-04  2382   0.522E-02    0.346E-01
RMM:   6    -0.125391407337E+04    0.20843E-03   -0.34015E-04  2282   0.400E-02    0.131E-01
RMM:   7    -0.125391415660E+04   -0.83221E-04   -0.18273E-04  2324   0.282E-02    0.135E-01
RMM:   8    -0.125391411504E+04    0.41555E-04   -0.92490E-05  2384   0.202E-02    0.825E-02
RMM:   9    -0.125391412138E+04   -0.63417E-05   -0.58893E-05  2065   0.164E-02    0.659E-02
RMM:  10    -0.125391411592E+04    0.54629E-05   -0.26587E-05  1954   0.115E-02    0.341E-02
RMM:  11    -0.125391411919E+04   -0.32675E-05   -0.11249E-05  1618   0.740E-03    0.286E-02
RMM:  12    -0.125391412274E+04   -0.35499E-05   -0.58826E-06  1495   0.553E-03    0.235E-02
RMM:  13    -0.125391412583E+04   -0.30931E-05   -0.33082E-06  1441   0.450E-03    0.143E-02
RMM:  14    -0.125391412848E+04   -0.26518E-05   -0.11581E-06  1302   0.276E-03    0.122E-02
RMM:  15    -0.125391412905E+04   -0.57003E-06   -0.67275E-07  1229   0.206E-03
   6 F= -.12626004E+04 E0= -.12625958E+04  d E =-.407708E+01  mag=    20.1207
 curvature:  -0.28 expect dE=-0.327E-01 dE for cont linesearch -0.617E-04
 trial: gam= 0.16117 g(F)=  0.110E+00 g(S)=  0.650E-02 ort =-0.133E-01 (trialstep = 0.813E+00)
 search vector abs. value=  0.133E+00
 bond charge predicted
       N       E                     dE             d eps       ncg     rms          rms(c)
DAV:   1    -0.125382763277E+04    0.86496E-01   -0.32357E+01  2104   0.912E+00    0.283E+00
RMM:   2    -0.125391817421E+04   -0.90541E-01   -0.54025E-01  2235   0.160E+00    0.175E+00
RMM:   3    -0.125396562196E+04   -0.47448E-01   -0.12149E-01  2668   0.622E-01    0.247E+00
RMM:   4    -0.125394946697E+04    0.16155E-01   -0.32678E-02  2621   0.318E-01    0.994E-01
RMM:   5    -0.125395164482E+04   -0.21779E-02   -0.96447E-03  2438   0.188E-01    0.947E-01
RMM:   6    -0.125395281472E+04   -0.11699E-02   -0.72625E-03  2457   0.163E-01    0.118E+00
RMM:   7    -0.125395246936E+04    0.34537E-03   -0.61616E-03  2354   0.155E-01    0.839E-01
RMM:   8    -0.125395134310E+04    0.11263E-02   -0.35515E-03  2394   0.129E-01    0.362E-01
RMM:   9    -0.125395162999E+04   -0.28688E-03   -0.11292E-03  2337   0.711E-02    0.309E-01
RMM:  10    -0.125395163763E+04   -0.76383E-05   -0.53593E-04  2315   0.472E-02    0.194E-01
RMM:  11    -0.125395185325E+04   -0.21563E-03   -0.24269E-04  2244   0.318E-02    0.145E-01
RMM:  12    -0.125395201466E+04   -0.16140E-03   -0.16380E-04  2169   0.265E-02    0.123E-01
RMM:  13    -0.125395213823E+04   -0.12357E-03   -0.99187E-05  2076   0.210E-02    0.914E-02
RMM:  14    -0.125395227119E+04   -0.13296E-03   -0.73927E-05  2021   0.176E-02    0.807E-02
RMM:  15    -0.125395237829E+04   -0.10710E-03   -0.49083E-05  1893   0.142E-02    0.702E-02
RMM:  16    -0.125395246141E+04   -0.83123E-04   -0.25407E-05  1765   0.101E-02    0.563E-02
RMM:  17    -0.125395250456E+04   -0.43147E-04   -0.10396E-05  1577   0.702E-03    0.394E-02
RMM:  18    -0.125395252702E+04   -0.22457E-04   -0.29251E-06  1446   0.363E-03    0.368E-02
RMM:  19    -0.125395254153E+04   -0.14508E-04   -0.13874E-06  1302   0.258E-03    0.353E-02
RMM:  20    -0.125395257614E+04   -0.34609E-04   -0.24522E-06  1400   0.317E-03    0.342E-02
RMM:  21    -0.125395269328E+04   -0.11714E-03   -0.67843E-06  1601   0.547E-03    0.252E-02
RMM:  22    -0.125395285904E+04   -0.16576E-03   -0.66989E-06  1622   0.506E-03    0.175E-02
RMM:  23    -0.125395293857E+04   -0.79529E-04   -0.30138E-06  1439   0.359E-03    0.175E-02
RMM:  24    -0.125395299750E+04   -0.58935E-04   -0.20279E-06  1355   0.303E-03    0.144E-02
RMM:  25    -0.125395306662E+04   -0.69120E-04   -0.18879E-06  1329   0.266E-03    0.107E-02
RMM:  26    -0.125395313705E+04   -0.70428E-04   -0.17582E-06  1319   0.237E-03    0.806E-03
RMM:  27    -0.125395319760E+04   -0.60546E-04   -0.13512E-06  1283   0.189E-03    0.680E-03
RMM:  28    -0.125395325535E+04   -0.57753E-04   -0.13017E-06  1279   0.175E-03    0.487E-03
RMM:  29    -0.125395331482E+04   -0.59472E-04   -0.15915E-06  1301   0.174E-03    0.387E-03
RMM:  30    -0.125395335718E+04   -0.42357E-04   -0.12976E-06  1237   0.159E-03    0.296E-03
RMM:  31    -0.125395338336E+04   -0.26186E-04   -0.98043E-07  1166   0.142E-03    0.198E-03
RMM:  32    -0.125395340039E+04   -0.17029E-04   -0.75233E-07  1134   0.116E-03    0.133E-03
RMM:  33    -0.125395341502E+04   -0.14623E-04   -0.63282E-07  1103   0.102E-03    0.126E-03
RMM:  34    -0.125395342876E+04   -0.13739E-04   -0.58583E-07  1087   0.958E-04    0.102E-03
RMM:  35    -0.125395344148E+04   -0.12727E-04   -0.58779E-07  1098   0.934E-04    0.828E-04
RMM:  36    -0.125395345035E+04   -0.88697E-05   -0.52990E-07  1081   0.903E-04    0.629E-04
RMM:  37    -0.125395345423E+04   -0.38720E-05   -0.38574E-07  1002   0.809E-04    0.542E-04
RMM:  38    -0.125395345752E+04   -0.32976E-05   -0.31070E-07   941   0.698E-04    0.413E-04
RMM:  39    -0.125395346118E+04   -0.36566E-05   -0.28762E-07  1012   0.685E-04    0.384E-04
RMM:  40    -0.125395346358E+04   -0.23969E-05   -0.26393E-07  1024   0.656E-04    0.257E-04
RMM:  41    -0.125395346444E+04   -0.86771E-06   -0.19239E-07   912   0.599E-04
   7 F= -.12626374E+04 E0= -.12626332E+04  d E =-.369911E-01  mag=    20.1055
 trial-energy change:   -0.036991  1 .order   -0.036860   -0.093052    0.019332
 step:   0.6733(harm=  0.6733)  dis= 0.01607  next Energy= -1262.638913 (dE=-0.385E-01)
 bond charge predicted
       N       E                     dE             d eps       ncg     rms          rms(c)
DAV:   1    -0.125395130366E+04    0.21599E-02   -0.95706E-01  2256   0.156E+00    0.483E-01
RMM:   2    -0.125395320167E+04   -0.18980E-02   -0.13238E-02  2280   0.257E-01    0.276E-01
RMM:   3    -0.125395481203E+04   -0.16104E-02   -0.27396E-03  2655   0.970E-02    0.362E-01
RMM:   4    -0.125395451347E+04    0.29855E-03   -0.79841E-04  2565   0.527E-02    0.224E-01
RMM:   5    -0.125395467357E+04   -0.16010E-03   -0.41129E-04  2454   0.372E-02    0.317E-01
RMM:   6    -0.125395447903E+04    0.19454E-03   -0.26028E-04  2376   0.334E-02    0.117E-01
RMM:   7    -0.125395456815E+04   -0.89125E-04   -0.17294E-04  2284   0.288E-02    0.104E-01
RMM:   8    -0.125395457494E+04   -0.67844E-05   -0.80960E-05  2192   0.188E-02    0.872E-02
RMM:   9    -0.125395456891E+04    0.60302E-05   -0.35864E-05  1844   0.122E-02    0.437E-02
RMM:  10    -0.125395458684E+04   -0.17934E-04   -0.12449E-05  1597   0.744E-03    0.248E-02
RMM:  11    -0.125395460751E+04   -0.20664E-04   -0.70860E-06  1490   0.538E-03    0.217E-02
RMM:  12    -0.125395462153E+04   -0.14027E-04   -0.53481E-06  1493   0.511E-03    0.221E-02
RMM:  13    -0.125395463223E+04   -0.10698E-04   -0.34155E-06  1422   0.399E-03    0.206E-02
RMM:  14    -0.125395463848E+04   -0.62452E-05   -0.22975E-06  1385   0.332E-03    0.120E-02
RMM:  15    -0.125395464965E+04   -0.11178E-04   -0.10304E-06  1294   0.238E-03    0.746E-03
RMM:  16    -0.125395465921E+04   -0.95572E-05   -0.59355E-07  1233   0.175E-03    0.863E-03
RMM:  17    -0.125395466247E+04   -0.32618E-05   -0.34140E-07  1160   0.135E-03    0.604E-03
RMM:  18    -0.125395466499E+04   -0.25144E-05   -0.14719E-07  1056   0.754E-04    0.532E-03
RMM:  19    -0.125395466666E+04   -0.16676E-05   -0.85415E-08   957   0.600E-04    0.510E-03
RMM:  20    -0.125395467090E+04   -0.42419E-05   -0.10153E-07   980   0.627E-04    0.452E-03
RMM:  21    -0.125395468248E+04   -0.11581E-04   -0.25679E-07  1168   0.986E-04    0.484E-03
RMM:  22    -0.125395469206E+04   -0.95821E-05   -0.29771E-07  1150   0.114E-03    0.350E-03
RMM:  23    -0.125395469808E+04   -0.60207E-05   -0.19867E-07  1075   0.839E-04    0.280E-03
RMM:  24    -0.125395470142E+04   -0.33356E-05   -0.12894E-07   957   0.669E-04    0.235E-03
RMM:  25    -0.125395470482E+04   -0.34029E-05   -0.10412E-07   954   0.552E-04    0.182E-03
RMM:  26    -0.125395471020E+04   -0.53766E-05   -0.12224E-07  1014   0.549E-04    0.129E-03
RMM:  27    -0.125395471523E+04   -0.50374E-05   -0.12203E-07  1006   0.515E-04    0.981E-04
RMM:  28    -0.125395471981E+04   -0.45765E-05   -0.12784E-07   906   0.488E-04    0.845E-04
RMM:  29    -0.125395472363E+04   -0.38150E-05   -0.13369E-07   954   0.501E-04    0.631E-04
RMM:  30    -0.125395472622E+04   -0.25952E-05   -0.11454E-07   903   0.479E-04    0.411E-04
RMM:  31    -0.125395472810E+04   -0.18766E-05   -0.96683E-08   837   0.444E-04    0.320E-04
RMM:  32    -0.125395472937E+04   -0.12725E-05   -0.75437E-08   788   0.413E-04    0.224E-04
RMM:  33    -0.125395473049E+04   -0.11163E-05   -0.65106E-08   771   0.390E-04    0.195E-04
RMM:  34    -0.125395473126E+04   -0.77017E-06   -0.52426E-08   736   0.375E-04
   8 F= -.12626390E+04 E0= -.12626347E+04  d E =-.386417E-01  mag=    20.1075
 curvature:  -0.39 expect dE=-0.572E-01 dE for cont linesearch -0.164E-08
 trial: gam= 1.22717 g(F)=  0.140E+00 g(S)=  0.561E-02 ort = 0.236E-04 (trialstep = 0.302E+00)
 search vector abs. value=  0.347E+00
 bond charge predicted
       N       E                     dE             d eps       ncg     rms          rms(c)
DAV:   1    -0.125393656398E+04    0.18167E-01   -0.11879E+01  2122   0.501E+00    0.172E+00
RMM:   2    -0.125396612052E+04   -0.29557E-01   -0.14443E-01  2259   0.819E-01    0.121E+00
RMM:   3    -0.125399896183E+04   -0.32841E-01   -0.46566E-02  2524   0.409E-01    0.283E+00
RMM:   4    -0.125397582341E+04    0.23138E-01   -0.18096E-02  2511   0.266E-01    0.633E-01
RMM:   5    -0.125397988246E+04   -0.40590E-02   -0.64968E-03  2340   0.156E-01    0.801E-01
RMM:   6    -0.125397909617E+04    0.78629E-03   -0.30242E-03  2407   0.113E-01    0.467E-01
RMM:   7    -0.125397919982E+04   -0.10365E-03   -0.17943E-03  2339   0.899E-02    0.370E-01
RMM:   8    -0.125397931540E+04   -0.11558E-03   -0.92336E-04  2339   0.633E-02    0.306E-01
RMM:   9    -0.125397914976E+04    0.16564E-03   -0.45419E-04  2296   0.444E-02    0.144E-01
RMM:  10    -0.125397935464E+04   -0.20488E-03   -0.19167E-04  2320   0.275E-02    0.144E-01
RMM:  11    -0.125397945320E+04   -0.98555E-04   -0.12437E-04  2171   0.225E-02    0.103E-01
RMM:  12    -0.125397961137E+04   -0.15817E-03   -0.65632E-05  2005   0.168E-02    0.763E-02
RMM:  13    -0.125397968470E+04   -0.73329E-04   -0.37359E-05  1823   0.125E-02    0.583E-02
RMM:  14    -0.125397973939E+04   -0.54686E-04   -0.17460E-05  1629   0.887E-03    0.453E-02
RMM:  15    -0.125397978461E+04   -0.45225E-04   -0.98292E-06  1568   0.666E-03    0.376E-02
RMM:  16    -0.125397982221E+04   -0.37596E-04   -0.38585E-06  1460   0.433E-03    0.284E-02
RMM:  17    -0.125397985810E+04   -0.35892E-04   -0.15764E-06  1300   0.251E-03    0.270E-02
RMM:  18    -0.125397991702E+04   -0.58920E-04   -0.24752E-06  1400   0.318E-03    0.260E-02
RMM:  19    -0.125398001132E+04   -0.94296E-04   -0.57545E-06  1523   0.459E-03    0.296E-02
RMM:  20    -0.125398013048E+04   -0.11917E-03   -0.55172E-06  1572   0.472E-03    0.172E-02
RMM:  21    -0.125398019078E+04   -0.60294E-04   -0.22508E-06  1358   0.303E-03    0.138E-02
RMM:  22    -0.125398024102E+04   -0.50246E-04   -0.21139E-06  1319   0.278E-03    0.127E-02
RMM:  23    -0.125398028440E+04   -0.43380E-04   -0.16511E-06  1280   0.244E-03    0.105E-02
RMM:  24    -0.125398033660E+04   -0.52197E-04   -0.10894E-06  1248   0.187E-03    0.639E-03
RMM:  25    -0.125398042119E+04   -0.84589E-04   -0.16357E-06  1324   0.181E-03    0.570E-03
RMM:  26    -0.125398048910E+04   -0.67915E-04   -0.15521E-06  1288   0.184E-03    0.421E-03
RMM:  27    -0.125398052973E+04   -0.40624E-04   -0.10853E-06  1196   0.156E-03    0.287E-03
RMM:  28    -0.125398055295E+04   -0.23222E-04   -0.77177E-07  1125   0.131E-03    0.226E-03
RMM:  29    -0.125398057368E+04   -0.20727E-04   -0.64803E-07  1109   0.109E-03    0.180E-03
RMM:  30    -0.125398060019E+04   -0.26513E-04   -0.69860E-07  1135   0.107E-03    0.180E-03
RMM:  31    -0.125398062078E+04   -0.20589E-04   -0.66668E-07  1107   0.103E-03    0.981E-04
RMM:  32    -0.125398063212E+04   -0.11345E-04   -0.52083E-07  1047   0.928E-04    0.928E-04
RMM:  33    -0.125398064266E+04   -0.10536E-04   -0.46042E-07  1020   0.835E-04    0.622E-04
RMM:  34    -0.125398065441E+04   -0.11751E-04   -0.46505E-07  1059   0.829E-04    0.639E-04
RMM:  35    -0.125398066138E+04   -0.69729E-05   -0.38736E-07  1014   0.794E-04    0.441E-04
RMM:  36    -0.125398066670E+04   -0.53173E-05   -0.33535E-07   988   0.713E-04    0.431E-04
RMM:  37    -0.125398067182E+04   -0.51179E-05   -0.31498E-07   994   0.699E-04    0.278E-04
RMM:  38    -0.125398067572E+04   -0.39037E-05   -0.30255E-07  1012   0.679E-04    0.279E-04
RMM:  39    -0.125398067734E+04   -0.16168E-05   -0.23339E-07   945   0.641E-04    0.177E-04
RMM:  40    -0.125398067810E+04   -0.76588E-06   -0.17087E-07   872   0.543E-04
   9 F= -.12626674E+04 E0= -.12626628E+04  d E =-.283893E-01  mag=    20.1126
 trial-energy change:   -0.028389  1 .order   -0.028403   -0.044071   -0.012734
 step:   0.4243(harm=  0.4243)  dis= 0.01775  next Energy= -1262.670022 (dE=-0.310E-01)
 bond charge predicted
       N       E                     dE             d eps       ncg     rms          rms(c)
DAV:   1    -0.125397520799E+04    0.54693E-02   -0.19628E+00  2256   0.204E+00    0.699E-01
RMM:   2    -0.125397933139E+04   -0.41234E-02   -0.21471E-02  2270   0.323E-01    0.495E-01
RMM:   3    -0.125398556793E+04   -0.62365E-02   -0.73555E-03  2500   0.167E-01    0.131E+00
RMM:   4    -0.125398099819E+04    0.45697E-02   -0.31892E-03  2498   0.111E-01    0.278E-01
RMM:   5    -0.125398192661E+04   -0.92842E-03   -0.11552E-03  2293   0.694E-02    0.310E-01
RMM:   6    -0.125398188124E+04    0.45375E-04   -0.55821E-04  2418   0.477E-02    0.222E-01
RMM:   7    -0.125398181018E+04    0.71058E-04   -0.29912E-04  2285   0.378E-02    0.122E-01
RMM:   8    -0.125398186892E+04   -0.58741E-04   -0.13719E-04  2246   0.244E-02    0.122E-01
RMM:   9    -0.125398184907E+04    0.19848E-04   -0.71478E-05  2037   0.180E-02    0.635E-02
RMM:  10    -0.125398188954E+04   -0.40464E-04   -0.31321E-05  1891   0.114E-02    0.578E-02
RMM:  11    -0.125398191876E+04   -0.29229E-04   -0.19113E-05  1655   0.924E-03    0.405E-02
RMM:  12    -0.125398195633E+04   -0.37562E-04   -0.10741E-05  1584   0.712E-03    0.313E-02
RMM:  13    -0.125398197664E+04   -0.20310E-04   -0.65650E-06  1494   0.565E-03    0.241E-02
RMM:  14    -0.125398199256E+04   -0.15919E-04   -0.28537E-06  1418   0.389E-03    0.177E-02
RMM:  15    -0.125398200446E+04   -0.11902E-04   -0.17201E-06  1358   0.297E-03    0.153E-02
RMM:  16    -0.125398201640E+04   -0.11941E-04   -0.72146E-07  1249   0.201E-03    0.113E-02
RMM:  17    -0.125398202528E+04   -0.88772E-05   -0.38340E-07  1179   0.124E-03    0.103E-02
RMM:  18    -0.125398203929E+04   -0.14015E-04   -0.35284E-07  1134   0.119E-03    0.911E-03
RMM:  19    -0.125398207031E+04   -0.31014E-04   -0.10429E-06  1280   0.197E-03    0.122E-02
RMM:  20    -0.125398209411E+04   -0.23808E-04   -0.99157E-07  1276   0.210E-03    0.772E-03
RMM:  21    -0.125398211018E+04   -0.16070E-04   -0.57699E-07  1202   0.150E-03    0.645E-03
RMM:  22    -0.125398212054E+04   -0.10358E-04   -0.49284E-07  1143   0.132E-03    0.486E-03
RMM:  23    -0.125398213539E+04   -0.14846E-04   -0.35571E-07  1147   0.108E-03    0.379E-03
RMM:  24    -0.125398215259E+04   -0.17205E-04   -0.31348E-07  1106   0.902E-04    0.311E-03
RMM:  25    -0.125398217365E+04   -0.21058E-04   -0.38788E-07  1139   0.894E-04    0.179E-03
RMM:  26    -0.125398219113E+04   -0.17482E-04   -0.40716E-07  1104   0.917E-04    0.199E-03
RMM:  27    -0.125398220185E+04   -0.10714E-04   -0.35656E-07  1033   0.842E-04    0.101E-03
RMM:  28    -0.125398220854E+04   -0.66960E-05   -0.27601E-07   957   0.714E-04    0.967E-04
RMM:  29    -0.125398221430E+04   -0.57602E-05   -0.23462E-07   966   0.633E-04    0.558E-04
RMM:  30    -0.125398222098E+04   -0.66787E-05   -0.23772E-07   992   0.621E-04    0.672E-04
RMM:  31    -0.125398222563E+04   -0.46485E-05   -0.21151E-07   974   0.613E-04    0.424E-04
RMM:  32    -0.125398222828E+04   -0.26455E-05   -0.16831E-07   900   0.547E-04    0.311E-04
RMM:  33    -0.125398223048E+04   -0.22049E-05   -0.13834E-07   871   0.507E-04    0.228E-04
RMM:  34    -0.125398223252E+04   -0.20422E-05   -0.12457E-07   880   0.482E-04    0.234E-04
RMM:  35    -0.125398223407E+04   -0.15417E-05   -0.10862E-07   888   0.467E-04    0.176E-04
RMM:  36    -0.125398223500E+04   -0.93284E-06   -0.85992E-08   818   0.431E-04
  10 F= -.12626700E+04 E0= -.12626652E+04  d E =-.309571E-01  mag=    20.1147
 curvature:  -0.50 expect dE=-0.398E-01 dE for cont linesearch -0.439E-07
 trial: gam= 0.55456 g(F)=  0.781E-01 g(S)=  0.102E-02 ort =-0.174E-03 (trialstep = 0.326E+00)
 search vector abs. value=  0.186E+00
 bond charge predicted
       N       E                     dE             d eps       ncg     rms          rms(c)
DAV:   1    -0.125396163762E+04    0.20596E-01   -0.68100E+00  2146   0.427E+00    0.126E+00
RMM:   2    -0.125397685351E+04   -0.15216E-01   -0.10645E-01  2378   0.689E-01    0.745E-01
RMM:   3    -0.125398602493E+04   -0.91714E-02   -0.19328E-02  2616   0.261E-01    0.109E+00
RMM:   4    -0.125398347190E+04    0.25530E-02   -0.65476E-03  2577   0.160E-01    0.657E-01
RMM:   5    -0.125398477676E+04   -0.13049E-02   -0.32985E-03  2439   0.108E-01    0.101E+00
RMM:   6    -0.125398264520E+04    0.21316E-02   -0.22627E-03  2412   0.991E-02    0.280E-01
RMM:   7    -0.125398348870E+04   -0.84350E-03   -0.13388E-03  2358   0.758E-02    0.356E-01
RMM:   8    -0.125398327510E+04    0.21360E-03   -0.80311E-04  2324   0.593E-02    0.268E-01
RMM:   9    -0.125398327731E+04   -0.22112E-05   -0.37237E-04  2299   0.399E-02    0.179E-01
RMM:  10    -0.125398326444E+04    0.12871E-04   -0.14765E-04  2185   0.262E-02    0.821E-02
RMM:  11    -0.125398338250E+04   -0.11805E-03   -0.56765E-05  2006   0.156E-02    0.819E-02
RMM:  12    -0.125398342319E+04   -0.40697E-04   -0.32212E-05  1817   0.122E-02    0.599E-02
RMM:  13    -0.125398347065E+04   -0.47455E-04   -0.18404E-05  1689   0.889E-03    0.471E-02
RMM:  14    -0.125398352285E+04   -0.52198E-04   -0.14285E-05  1646   0.812E-03    0.411E-02
RMM:  15    -0.125398358961E+04   -0.66765E-04   -0.13413E-05  1645   0.775E-03    0.400E-02
RMM:  16    -0.125398364658E+04   -0.56973E-04   -0.80431E-06  1559   0.636E-03    0.245E-02
RMM:  17    -0.125398366821E+04   -0.21623E-04   -0.31760E-06  1440   0.391E-03    0.238E-02
RMM:  18    -0.125398367468E+04   -0.64712E-05   -0.10777E-06  1286   0.240E-03    0.214E-02
RMM:  19    -0.125398367744E+04   -0.27607E-05   -0.43201E-07  1210   0.146E-03    0.199E-02
RMM:  20    -0.125398368550E+04   -0.80555E-05   -0.38326E-07  1136   0.133E-03    0.178E-02
RMM:  21    -0.125398374108E+04   -0.55588E-04   -0.21307E-06  1365   0.291E-03    0.149E-02
RMM:  22    -0.125398380927E+04   -0.68188E-04   -0.21483E-06  1356   0.291E-03    0.120E-02
RMM:  23    -0.125398386192E+04   -0.52643E-04   -0.15338E-06  1299   0.230E-03    0.942E-03
RMM:  24    -0.125398391322E+04   -0.51303E-04   -0.13392E-06  1297   0.198E-03    0.568E-03
RMM:  25    -0.125398394924E+04   -0.36026E-04   -0.97920E-07  1213   0.175E-03    0.448E-03
RMM:  26    -0.125398397924E+04   -0.29995E-04   -0.82319E-07  1187   0.149E-03    0.344E-03
RMM:  27    -0.125398402617E+04   -0.46931E-04   -0.11566E-06  1242   0.138E-03    0.271E-03
RMM:  28    -0.125398406350E+04   -0.37331E-04   -0.11098E-06  1206   0.137E-03    0.207E-03
RMM:  29    -0.125398407872E+04   -0.15216E-04   -0.74070E-07  1118   0.119E-03    0.186E-03
RMM:  30    -0.125398409242E+04   -0.13698E-04   -0.60459E-07  1100   0.101E-03    0.136E-03
RMM:  31    -0.125398410866E+04   -0.16242E-04   -0.58988E-07  1099   0.975E-04    0.963E-04
RMM:  32    -0.125398412236E+04   -0.13706E-04   -0.57355E-07  1098   0.946E-04    0.840E-04
RMM:  33    -0.125398413127E+04   -0.89080E-05   -0.48768E-07  1068   0.893E-04    0.626E-04
RMM:  34    -0.125398413780E+04   -0.65246E-05   -0.41723E-07  1037   0.810E-04    0.491E-04
RMM:  35    -0.125398414279E+04   -0.49978E-05   -0.35162E-07  1006   0.758E-04    0.420E-04
RMM:  36    -0.125398414658E+04   -0.37835E-05   -0.30080E-07   983   0.696E-04    0.342E-04
RMM:  37    -0.125398414943E+04   -0.28572E-05   -0.25996E-07   987   0.660E-04    0.274E-04
RMM:  38    -0.125398415111E+04   -0.16771E-05   -0.21168E-07   954   0.605E-04    0.212E-04
RMM:  39    -0.125398415180E+04   -0.69068E-06   -0.15138E-07   885   0.539E-04
  11 F= -.12626752E+04 E0= -.12626708E+04  d E =-.519964E-02  mag=    20.0993
 trial-energy change:   -0.005200  1 .order   -0.004948   -0.025782    0.015886
 step:   0.2046(harm=  0.2018)  dis= 0.00543  next Energy= -1262.678137 (dE=-0.815E-02)
 bond charge predicted
       N       E                     dE             d eps       ncg     rms          rms(c)
DAV:   1    -0.125398523342E+04   -0.10823E-02   -0.94780E-01  2256   0.159E+00    0.477E-01
RMM:   2    -0.125398700039E+04   -0.17670E-02   -0.14836E-02  2342   0.261E-01    0.288E-01
RMM:   3    -0.125398840872E+04   -0.14083E-02   -0.25680E-03  2621   0.966E-02    0.353E-01
RMM:   4    -0.125398817641E+04    0.23231E-03   -0.90020E-04  2567   0.593E-02    0.262E-01
RMM:   5    -0.125398822122E+04   -0.44815E-04   -0.41353E-04  2408   0.407E-02    0.308E-01
RMM:   6    -0.125398802400E+04    0.19723E-03   -0.27926E-04  2320   0.334E-02    0.140E-01
RMM:   7    -0.125398810750E+04   -0.83499E-04   -0.20423E-04  2297   0.291E-02    0.134E-01
RMM:   8    -0.125398807745E+04    0.30041E-04   -0.11953E-04  2185   0.233E-02    0.945E-02
RMM:   9    -0.125398809508E+04   -0.17623E-04   -0.59530E-05  1969   0.160E-02    0.697E-02
RMM:  10    -0.125398809844E+04   -0.33593E-05   -0.23593E-05  1687   0.105E-02    0.361E-02
RMM:  11    -0.125398812499E+04   -0.26548E-04   -0.10846E-05  1596   0.712E-03    0.335E-02
RMM:  12    -0.125398814100E+04   -0.16012E-04   -0.54826E-06  1484   0.530E-03    0.183E-02
RMM:  13    -0.125398815571E+04   -0.14711E-04   -0.28364E-06  1425   0.376E-03    0.186E-02
RMM:  14    -0.125398816977E+04   -0.14061E-04   -0.25983E-06  1410   0.352E-03    0.177E-02
RMM:  15    -0.125398818751E+04   -0.17740E-04   -0.20151E-06  1391   0.321E-03    0.137E-02
RMM:  16    -0.125398820452E+04   -0.17013E-04   -0.12527E-06  1309   0.257E-03    0.955E-03
RMM:  17    -0.125398820988E+04   -0.53590E-05   -0.57875E-07  1207   0.174E-03    0.797E-03
RMM:  18    -0.125398821153E+04   -0.16460E-05   -0.23387E-07  1104   0.103E-03    0.738E-03
RMM:  19    -0.125398821228E+04   -0.75512E-06   -0.11411E-07  1006   0.702E-04
  12 F= -.12626780E+04 E0= -.12626735E+04  d E =-.803445E-02  mag=    20.1037
 curvature:  -0.24 expect dE=-0.101E-01 dE for cont linesearch -0.237E-07
 trial: gam= 0.53356 g(F)=  0.421E-01 g(S)=  0.413E-03 ort = 0.136E-03 (trialstep = 0.302E+00)
 search vector abs. value=  0.955E-01
 bond charge predicted
       N       E                     dE             d eps       ncg     rms          rms(c)
DAV:   1    -0.125398665830E+04    0.15532E-02   -0.26452E+00  2144   0.307E+00    0.711E-01
RMM:   2    -0.125399210910E+04   -0.54508E-02   -0.46404E-02  2507   0.467E-01    0.429E-01
RMM:   3    -0.125399602654E+04   -0.39174E-02   -0.72610E-03  2558   0.177E-01    0.803E-01
RMM:   4    -0.125399436921E+04    0.16573E-02   -0.26502E-03  2612   0.103E-01    0.368E-01
RMM:   5    -0.125399474886E+04   -0.37965E-03   -0.10343E-03  2470   0.614E-02    0.401E-01
RMM:   6    -0.125399459168E+04    0.15718E-03   -0.64149E-04  2419   0.513E-02    0.249E-01
RMM:   7    -0.125399461331E+04   -0.21627E-04   -0.41902E-04  2390   0.434E-02    0.171E-01
RMM:   8    -0.125399470804E+04   -0.94727E-04   -0.28882E-04  2375   0.355E-02    0.178E-01
RMM:   9    -0.125399464261E+04    0.65433E-04   -0.15010E-04  2251   0.254E-02    0.844E-02
RMM:  10    -0.125399466511E+04   -0.22501E-04   -0.56323E-05  1978   0.153E-02    0.606E-02
RMM:  11    -0.125399469592E+04   -0.30817E-04   -0.26421E-05  1789   0.107E-02    0.528E-02
RMM:  12    -0.125399471401E+04   -0.18084E-04   -0.14912E-05  1616   0.861E-03    0.283E-02
RMM:  13    -0.125399473306E+04   -0.19057E-04   -0.58868E-06  1501   0.543E-03    0.207E-02
RMM:  14    -0.125399474485E+04   -0.11787E-04   -0.34755E-06  1424   0.417E-03    0.198E-02
RMM:  15    -0.125399475569E+04   -0.10836E-04   -0.23430E-06  1384   0.334E-03    0.160E-02
RMM:  16    -0.125399476844E+04   -0.12757E-04   -0.15642E-06  1346   0.279E-03    0.110E-02
RMM:  17    -0.125399478736E+04   -0.18913E-04   -0.96609E-07  1281   0.225E-03    0.747E-03
RMM:  18    -0.125399480603E+04   -0.18674E-04   -0.94354E-07  1284   0.198E-03    0.968E-03
RMM:  19    -0.125399481837E+04   -0.12340E-04   -0.70025E-07  1233   0.177E-03    0.561E-03
RMM:  20    -0.125399483105E+04   -0.12675E-04   -0.41606E-07  1173   0.118E-03    0.373E-03
RMM:  21    -0.125399484135E+04   -0.10301E-04   -0.32413E-07  1108   0.975E-04    0.339E-03
RMM:  22    -0.125399485433E+04   -0.12988E-04   -0.35802E-07  1147   0.970E-04    0.266E-03
RMM:  23    -0.125399486848E+04   -0.14142E-04   -0.40116E-07  1146   0.991E-04    0.233E-03
RMM:  24    -0.125399487702E+04   -0.85455E-05   -0.33931E-07  1083   0.903E-04    0.172E-03
RMM:  25    -0.125399488318E+04   -0.61590E-05   -0.28187E-07  1003   0.765E-04    0.154E-03
RMM:  26    -0.125399488832E+04   -0.51353E-05   -0.23080E-07   984   0.700E-04    0.116E-03
RMM:  27    -0.125399489413E+04   -0.58181E-05   -0.22358E-07   980   0.629E-04    0.840E-04
RMM:  28    -0.125399489948E+04   -0.53462E-05   -0.21404E-07  1021   0.624E-04    0.682E-04
RMM:  29    -0.125399490181E+04   -0.23307E-05   -0.15687E-07   929   0.549E-04    0.630E-04
RMM:  30    -0.125399490288E+04   -0.10685E-05   -0.10444E-07   805   0.467E-04    0.581E-04
RMM:  31    -0.125399490425E+04   -0.13689E-05   -0.78691E-08   770   0.425E-04    0.441E-04
RMM:  32    -0.125399490711E+04   -0.28620E-05   -0.97940E-08   914   0.434E-04    0.345E-04
RMM:  33    -0.125399490993E+04   -0.28203E-05   -0.10467E-07   951   0.460E-04    0.326E-04
RMM:  34    -0.125399491157E+04   -0.16339E-05   -0.87139E-08   839   0.434E-04    0.257E-04
RMM:  35    -0.125399491256E+04   -0.99331E-06   -0.71723E-08   809   0.408E-04
  13 F= -.12626869E+04 E0= -.12626823E+04  d E =-.891267E-02  mag=    20.1065
 trial-energy change:   -0.008913  1 .order   -0.008831   -0.012867   -0.004795
 step:   0.4659(harm=  0.4812)  dis= 0.00710  next Energy= -1262.688252 (dE=-0.102E-01)
 bond charge predicted
       N       E                     dE             d eps       ncg     rms          rms(c)
DAV:   1    -0.125399271489E+04    0.21967E-02   -0.78079E-01  2216   0.167E+00    0.387E-01
RMM:   2    -0.125399412407E+04   -0.14092E-02   -0.13653E-02  2507   0.254E-01    0.235E-01
RMM:   3    -0.125399540124E+04   -0.12772E-02   -0.21307E-03  2546   0.968E-02    0.443E-01
RMM:   4    -0.125399488043E+04    0.52081E-03   -0.79693E-04  2609   0.569E-02    0.205E-01
RMM:   5    -0.125399501089E+04   -0.13046E-03   -0.31236E-04  2423   0.339E-02    0.224E-01
RMM:   6    -0.125399495540E+04    0.55491E-04   -0.19269E-04  2398   0.283E-02    0.129E-01
RMM:   7    -0.125399497291E+04   -0.17510E-04   -0.12377E-04  2309   0.238E-02    0.942E-02
RMM:   8    -0.125399499898E+04   -0.26070E-04   -0.86105E-05  2251   0.195E-02    0.928E-02
RMM:   9    -0.125399498622E+04    0.12761E-04   -0.43151E-05  1910   0.139E-02    0.489E-02
RMM:  10    -0.125399499401E+04   -0.77858E-05   -0.16552E-05  1632   0.855E-03    0.313E-02
RMM:  11    -0.125399500956E+04   -0.15553E-04   -0.73452E-06  1525   0.605E-03    0.293E-02
RMM:  12    -0.125399501747E+04   -0.79091E-05   -0.44126E-06  1463   0.493E-03    0.161E-02
RMM:  13    -0.125399502703E+04   -0.95630E-05   -0.17986E-06  1369   0.318E-03    0.113E-02
RMM:  14    -0.125399503390E+04   -0.68670E-05   -0.12788E-06  1337   0.263E-03    0.125E-02
RMM:  15    -0.125399503941E+04   -0.55085E-05   -0.92814E-07  1287   0.220E-03    0.959E-03
RMM:  16    -0.125399504581E+04   -0.63994E-05   -0.56641E-07  1230   0.173E-03    0.705E-03
RMM:  17    -0.125399505136E+04   -0.55530E-05   -0.32205E-07  1174   0.134E-03    0.492E-03
RMM:  18    -0.125399505596E+04   -0.45947E-05   -0.17585E-07  1089   0.845E-04    0.454E-03
RMM:  19    -0.125399505844E+04   -0.24812E-05   -0.12610E-07  1006   0.763E-04    0.434E-03
RMM:  20    -0.125399506387E+04   -0.54385E-05   -0.12064E-07  1028   0.690E-04    0.334E-03
RMM:  21    -0.125399507651E+04   -0.12633E-04   -0.23292E-07  1180   0.858E-04    0.328E-03
RMM:  22    -0.125399508322E+04   -0.67077E-05   -0.22133E-07  1089   0.966E-04    0.279E-03
RMM:  23    -0.125399508714E+04   -0.39291E-05   -0.15051E-07  1009   0.693E-04    0.231E-03
RMM:  24    -0.125399509003E+04   -0.28810E-05   -0.10294E-07   958   0.587E-04    0.193E-03
RMM:  25    -0.125399509245E+04   -0.24249E-05   -0.76438E-08   860   0.488E-04    0.148E-03
RMM:  26    -0.125399509576E+04   -0.33126E-05   -0.72540E-08   875   0.463E-04    0.122E-03
RMM:  27    -0.125399510158E+04   -0.58192E-05   -0.10956E-07   975   0.484E-04    0.930E-04
RMM:  28    -0.125399510666E+04   -0.50801E-05   -0.11526E-07   976   0.510E-04    0.671E-04
RMM:  29    -0.125399510994E+04   -0.32764E-05   -0.10715E-07   873   0.463E-04    0.444E-04
RMM:  30    -0.125399511211E+04   -0.21749E-05   -0.92273E-08   860   0.451E-04    0.381E-04
RMM:  31    -0.125399511350E+04   -0.13824E-05   -0.72659E-08   793   0.411E-04    0.269E-04
RMM:  32    -0.125399511493E+04   -0.14361E-05   -0.65173E-08   786   0.396E-04    0.220E-04
RMM:  33    -0.125399511650E+04   -0.15644E-05   -0.69580E-08   825   0.394E-04    0.171E-04
RMM:  34    -0.125399511744E+04   -0.94136E-06   -0.57890E-08   802   0.392E-04
  14 F= -.12626883E+04 E0= -.12626836E+04  d E =-.103149E-01  mag=    20.1074
 curvature:  -0.54 expect dE=-0.167E-01 dE for cont linesearch -0.110E-04
 trial: gam= 0.71131 g(F)=  0.309E-01 g(S)=  0.361E-03 ort = 0.140E-02 (trialstep = 0.335E+00)
 search vector abs. value=  0.816E-01
 bond charge predicted
       N       E                     dE             d eps       ncg     rms          rms(c)
DAV:   1    -0.125399279325E+04    0.23233E-02   -0.26334E+00  2124   0.329E+00    0.623E-01
RMM:   2    -0.125399805143E+04   -0.52582E-02   -0.52690E-02  2567   0.479E-01    0.378E-01
RMM:   3    -0.125400083278E+04   -0.27814E-02   -0.68843E-03  2583   0.172E-01    0.663E-01
RMM:   4    -0.125399983332E+04    0.99946E-03   -0.24150E-03  2661   0.939E-02    0.319E-01
RMM:   5    -0.125400021116E+04   -0.37784E-03   -0.88215E-04  2486   0.567E-02    0.448E-01
RMM:   6    -0.125399983728E+04    0.37388E-03   -0.54017E-04  2423   0.474E-02    0.196E-01
RMM:   7    -0.125400000190E+04   -0.16462E-03   -0.38848E-04  2398   0.421E-02    0.183E-01
RMM:   8    -0.125400001470E+04   -0.12805E-04   -0.26277E-04  2401   0.328E-02    0.152E-01
RMM:   9    -0.125399998466E+04    0.30045E-04   -0.12273E-04  2241   0.240E-02    0.775E-02
RMM:  10    -0.125399999909E+04   -0.14430E-04   -0.54603E-05  1959   0.146E-02    0.648E-02
RMM:  11    -0.125400001579E+04   -0.16697E-04   -0.21516E-05  1679   0.999E-03    0.422E-02
RMM:  12    -0.125400002829E+04   -0.12502E-04   -0.12948E-05  1598   0.779E-03    0.296E-02
RMM:  13    -0.125400004102E+04   -0.12732E-04   -0.46492E-06  1468   0.507E-03    0.171E-02
RMM:  14    -0.125400005333E+04   -0.12315E-04   -0.23736E-06  1407   0.351E-03    0.156E-02
RMM:  15    -0.125400006136E+04   -0.80205E-05   -0.21385E-06  1377   0.317E-03    0.178E-02
RMM:  16    -0.125400007130E+04   -0.99480E-05   -0.13063E-06  1316   0.255E-03    0.101E-02
RMM:  17    -0.125400008189E+04   -0.10583E-04   -0.82056E-07  1270   0.206E-03    0.809E-03
RMM:  18    -0.125400009215E+04   -0.10267E-04   -0.50075E-07  1226   0.157E-03    0.606E-03
RMM:  19    -0.125400010343E+04   -0.11276E-04   -0.40017E-07  1203   0.133E-03    0.537E-03
RMM:  20    -0.125400011604E+04   -0.12610E-04   -0.49006E-07  1206   0.146E-03    0.673E-03
RMM:  21    -0.125400012616E+04   -0.10124E-04   -0.48442E-07  1190   0.137E-03    0.611E-03
RMM:  22    -0.125400013212E+04   -0.59585E-05   -0.28786E-07  1115   0.114E-03    0.344E-03
RMM:  23    -0.125400013779E+04   -0.56714E-05   -0.18496E-07  1093   0.767E-04    0.305E-03
RMM:  24    -0.125400014243E+04   -0.46418E-05   -0.14276E-07  1005   0.700E-04    0.255E-03
RMM:  25    -0.125400014782E+04   -0.53863E-05   -0.12962E-07   966   0.626E-04    0.199E-03
RMM:  26    -0.125400015587E+04   -0.80504E-05   -0.14577E-07  1046   0.601E-04    0.156E-03
RMM:  27    -0.125400016517E+04   -0.93000E-05   -0.17457E-07  1034   0.594E-04    0.140E-03
RMM:  28    -0.125400017168E+04   -0.65085E-05   -0.16637E-07   986   0.603E-04    0.105E-03
RMM:  29    -0.125400017683E+04   -0.51499E-05   -0.16061E-07   946   0.551E-04    0.788E-04
RMM:  30    -0.125400018160E+04   -0.47677E-05   -0.15567E-07   955   0.547E-04    0.546E-04
RMM:  31    -0.125400018477E+04   -0.31778E-05   -0.13336E-07   914   0.507E-04    0.381E-04
RMM:  32    -0.125400018717E+04   -0.23977E-05   -0.11080E-07   858   0.469E-04    0.341E-04
RMM:  33    -0.125400018981E+04   -0.26431E-05   -0.10909E-07   889   0.454E-04    0.241E-04
RMM:  34    -0.125400019197E+04   -0.21600E-05   -0.10231E-07   910   0.456E-04    0.212E-04
RMM:  35    -0.125400019301E+04   -0.10393E-05   -0.75620E-08   792   0.417E-04    0.174E-04
RMM:  36    -0.125400019396E+04   -0.94672E-06   -0.61026E-08   743   0.387E-04
  15 F= -.12626960E+04 E0= -.12626913E+04  d E =-.764957E-02  mag=    20.1044
 trial-energy change:   -0.007650  1 .order   -0.007680   -0.010796   -0.004564
 step:   0.5934(harm=  0.5798)  dis= 0.00722  next Energy= -1262.697738 (dE=-0.940E-02)
 bond charge predicted
       N       E                     dE             d eps       ncg     rms          rms(c)
DAV:   1    -0.125399545033E+04    0.47427E-02   -0.15739E+00  2192   0.255E+00    0.482E-01
RMM:   2    -0.125399849332E+04   -0.30430E-02   -0.31469E-02  2565   0.370E-01    0.292E-01
RMM:   3    -0.125400021598E+04   -0.17227E-02   -0.41075E-03  2585   0.133E-01    0.507E-01
RMM:   4    -0.125399961893E+04    0.59706E-03   -0.14414E-03  2661   0.724E-02    0.244E-01
RMM:   5    -0.125399985198E+04   -0.23305E-03   -0.52049E-04  2469   0.437E-02    0.340E-01
RMM:   6    -0.125399964006E+04    0.21191E-03   -0.32017E-04  2417   0.364E-02    0.157E-01
RMM:   7    -0.125399973851E+04   -0.98450E-04   -0.23329E-04  2369   0.325E-02    0.142E-01
RMM:   8    -0.125399974967E+04   -0.11159E-04   -0.15598E-04  2368   0.255E-02    0.114E-01
RMM:   9    -0.125399973594E+04    0.13727E-04   -0.71476E-05  2106   0.184E-02    0.601E-02
RMM:  10    -0.125399974502E+04   -0.90743E-05   -0.32035E-05  1803   0.113E-02    0.507E-02
RMM:  11    -0.125399975668E+04   -0.11660E-04   -0.12576E-05  1592   0.781E-03    0.313E-02
RMM:  12    -0.125399976550E+04   -0.88259E-05   -0.74447E-06  1513   0.602E-03    0.227E-02
RMM:  13    -0.125399977384E+04   -0.83400E-05   -0.28189E-06  1407   0.406E-03    0.130E-02
RMM:  14    -0.125399978205E+04   -0.82050E-05   -0.12997E-06  1333   0.270E-03    0.113E-02
RMM:  15    -0.125399978776E+04   -0.57102E-05   -0.12702E-06  1302   0.247E-03    0.144E-02
RMM:  16    -0.125399979427E+04   -0.65073E-05   -0.80958E-07  1265   0.203E-03    0.728E-03
RMM:  17    -0.125399980184E+04   -0.75687E-05   -0.45304E-07  1224   0.153E-03    0.589E-03
RMM:  18    -0.125399980853E+04   -0.66963E-05   -0.32575E-07  1187   0.125E-03    0.462E-03
RMM:  19    -0.125399981596E+04   -0.74266E-05   -0.27692E-07  1154   0.108E-03    0.463E-03
RMM:  20    -0.125399982320E+04   -0.72417E-05   -0.31066E-07  1143   0.116E-03    0.532E-03
RMM:  21    -0.125399983031E+04   -0.71103E-05   -0.28475E-07  1127   0.106E-03    0.421E-03
RMM:  22    -0.125399983408E+04   -0.37742E-05   -0.18700E-07  1067   0.931E-04    0.258E-03
RMM:  23    -0.125399983793E+04   -0.38471E-05   -0.11494E-07   975   0.592E-04    0.226E-03
RMM:  24    -0.125399984183E+04   -0.38975E-05   -0.95433E-08   980   0.557E-04    0.172E-03
RMM:  25    -0.125399984576E+04   -0.39300E-05   -0.91214E-08   898   0.520E-04    0.160E-03
RMM:  26    -0.125399985014E+04   -0.43837E-05   -0.92935E-08   938   0.526E-04    0.125E-03
RMM:  27    -0.125399985602E+04   -0.58742E-05   -0.11562E-07   989   0.496E-04    0.108E-03
RMM:  28    -0.125399986029E+04   -0.42759E-05   -0.10515E-07   919   0.504E-04    0.745E-04
RMM:  29    -0.125399986348E+04   -0.31915E-05   -0.10078E-07   883   0.455E-04    0.587E-04
RMM:  30    -0.125399986628E+04   -0.27961E-05   -0.91714E-08   870   0.460E-04    0.421E-04
RMM:  31    -0.125399986827E+04   -0.19938E-05   -0.80363E-08   830   0.421E-04    0.288E-04
RMM:  32    -0.125399986992E+04   -0.16448E-05   -0.70973E-08   837   0.410E-04    0.253E-04
RMM:  33    -0.125399987152E+04   -0.16013E-05   -0.65051E-08   801   0.390E-04    0.186E-04
RMM:  34    -0.125399987285E+04   -0.13258E-05   -0.61660E-08   808   0.390E-04    0.162E-04
RMM:  35    -0.125399987354E+04   -0.69755E-06   -0.45315E-08   720   0.366E-04
  16 F= -.12626976E+04 E0= -.12626929E+04  d E =-.929894E-02  mag=    20.1022
 curvature:  -0.73 expect dE=-0.123E-01 dE for cont linesearch -0.483E-05
 trial: gam= 0.62124 g(F)=  0.168E-01 g(S)=  0.873E-04 ort =-0.735E-03 (trialstep = 0.386E+00)
 search vector abs. value=  0.474E-01
 bond charge predicted
       N       E                     dE             d eps       ncg     rms          rms(c)
DAV:   1    -0.125399714798E+04    0.27249E-02   -0.19538E+00  2140   0.294E+00    0.464E-01
RMM:   2    -0.125400120114E+04   -0.40532E-02   -0.42079E-02  2586   0.419E-01    0.296E-01
RMM:   3    -0.125400302657E+04   -0.18254E-02   -0.48661E-03  2561   0.152E-01    0.572E-01
RMM:   4    -0.125400213170E+04    0.89487E-03   -0.16450E-03  2676   0.777E-02    0.178E-01
RMM:   5    -0.125400235715E+04   -0.22546E-03   -0.43529E-04  2516   0.406E-02    0.256E-01
RMM:   6    -0.125400227632E+04    0.80828E-04   -0.26738E-04  2454   0.312E-02    0.207E-01
RMM:   7    -0.125400237165E+04   -0.95328E-04   -0.30353E-04  2353   0.351E-02    0.204E-01
RMM:   8    -0.125400233547E+04    0.36179E-04   -0.21018E-04  2383   0.303E-02    0.132E-01
RMM:   9    -0.125400231802E+04    0.17457E-04   -0.92513E-05  2130   0.203E-02    0.683E-02
RMM:  10    -0.125400232283E+04   -0.48092E-05   -0.32615E-05  1820   0.120E-02    0.427E-02
RMM:  11    -0.125400233757E+04   -0.14740E-04   -0.12683E-05  1624   0.796E-03    0.305E-02
RMM:  12    -0.125400234530E+04   -0.77293E-05   -0.78642E-06  1533   0.606E-03    0.226E-02
RMM:  13    -0.125400235305E+04   -0.77558E-05   -0.39309E-06  1425   0.443E-03    0.167E-02
RMM:  14    -0.125400235906E+04   -0.60121E-05   -0.22859E-06  1384   0.346E-03    0.153E-02
RMM:  15    -0.125400236390E+04   -0.48388E-05   -0.17076E-06  1365   0.303E-03    0.135E-02
RMM:  16    -0.125400236830E+04   -0.43967E-05   -0.10384E-06  1284   0.226E-03    0.122E-02
RMM:  17    -0.125400237172E+04   -0.34250E-05   -0.51992E-07  1208   0.173E-03    0.755E-03
RMM:  18    -0.125400237558E+04   -0.38570E-05   -0.22878E-07  1150   0.104E-03    0.647E-03
RMM:  19    -0.125400238002E+04   -0.44444E-05   -0.22764E-07  1091   0.105E-03    0.662E-03
RMM:  20    -0.125400238647E+04   -0.64450E-05   -0.36628E-07  1170   0.128E-03    0.711E-03
RMM:  21    -0.125400239574E+04   -0.92653E-05   -0.36368E-07  1198   0.134E-03    0.479E-03
RMM:  22    -0.125400240148E+04   -0.57402E-05   -0.25374E-07  1135   0.110E-03    0.358E-03
RMM:  23    -0.125400240546E+04   -0.39822E-05   -0.18167E-07  1100   0.870E-04    0.322E-03
RMM:  24    -0.125400240874E+04   -0.32857E-05   -0.12104E-07  1040   0.694E-04    0.226E-03
RMM:  25    -0.125400241154E+04   -0.28002E-05   -0.80346E-08   889   0.522E-04    0.179E-03
RMM:  26    -0.125400241481E+04   -0.32629E-05   -0.71962E-08   891   0.494E-04    0.150E-03
RMM:  27    -0.125400242088E+04   -0.60753E-05   -0.11007E-07   997   0.522E-04    0.126E-03
RMM:  28    -0.125400242588E+04   -0.49981E-05   -0.10760E-07   960   0.536E-04    0.871E-04
RMM:  29    -0.125400242963E+04   -0.37495E-05   -0.10363E-07   869   0.464E-04    0.530E-04
RMM:  30    -0.125400243247E+04   -0.28457E-05   -0.94837E-08   872   0.463E-04    0.461E-04
[...]
 bond charge predicted
       N       E                     dE             d eps       ncg     rms          rms(c)
DAV:   1    -0.125403861003E+04    0.12556E-01   -0.55107E+00  2104   0.470E+00    0.553E-01
RMM:   2    -0.125404994545E+04   -0.11335E-01   -0.11916E-01  2358   0.601E-01    0.512E-01
RMM:   3    -0.125405648069E+04   -0.65352E-02   -0.14438E-02  2301   0.283E-01    0.184E+00
RMM:   4    -0.125404946320E+04    0.70175E-02   -0.63994E-03  2679   0.152E-01    0.334E-01
RMM:   5    -0.125405108995E+04   -0.16268E-02   -0.14745E-03  2340   0.847E-02    0.309E-01
RMM:   6    -0.125405112810E+04   -0.38150E-04   -0.56017E-04  2473   0.469E-02    0.234E-01
RMM:   7    -0.125405128971E+04   -0.16161E-03   -0.53934E-04  2383   0.477E-02    0.261E-01
RMM:   8    -0.125405122215E+04    0.67565E-04   -0.40156E-04  2385   0.392E-02    0.150E-01
RMM:   9    -0.125405123420E+04   -0.12056E-04   -0.16862E-04  2300   0.278E-02    0.128E-01
RMM:  10    -0.125405122674E+04    0.74600E-05   -0.71665E-05  2070   0.165E-02    0.943E-02
RMM:  11    -0.125405122741E+04   -0.66190E-06   -0.28570E-05  1776   0.113E-02    0.450E-02
RMM:  12    -0.125405125156E+04   -0.24154E-04   -0.19514E-05  1744   0.902E-03    0.417E-02
RMM:  13    -0.125405126686E+04   -0.15302E-04   -0.15063E-05  1624   0.846E-03    0.394E-02
RMM:  14    -0.125405127811E+04   -0.11251E-04   -0.80289E-06  1547   0.648E-03    0.299E-02
RMM:  15    -0.125405128256E+04   -0.44505E-05   -0.40373E-06  1456   0.469E-03    0.247E-02
RMM:  16    -0.125405128343E+04   -0.86136E-06   -0.17004E-06  1348   0.299E-03
 212 F= -.12627655E+04 E0= -.12627601E+04  d E =-.894271E-03  mag=    20.1004
 curvature:  20.07 expect dE= 0.894E+00 dE for cont linesearch  0.235E-02
 ZBRENT: bracketing found
 ZBRENT: interpolating
 opt :   0.3597  next Energy= -1262.766113 (dE=-0.155E-02)
 bond charge predicted
       N       E                     dE             d eps       ncg     rms          rms(c)
DAV:   1    -0.125404547951E+04    0.58030E-02   -0.25939E+00  2126   0.323E+00    0.379E-01
RMM:   2    -0.125405076216E+04   -0.52827E-02   -0.55903E-02  2359   0.411E-01    0.326E-01
RMM:   3    -0.125405355308E+04   -0.27909E-02   -0.65272E-03  2303   0.191E-01    0.104E+00
RMM:   4    -0.125405088882E+04    0.26643E-02   -0.27633E-03  2677   0.981E-02    0.201E-01
RMM:   5    -0.125405142389E+04   -0.53507E-03   -0.58520E-04  2327   0.511E-02    0.210E-01
RMM:   6    -0.125405143049E+04   -0.66036E-05   -0.24761E-04  2402   0.316E-02    0.157E-01
RMM:   7    -0.125405157730E+04   -0.14681E-03   -0.27785E-04  2364   0.340E-02    0.203E-01
RMM:   8    -0.125405150143E+04    0.75872E-04   -0.21211E-04  2340   0.298E-02    0.931E-02
RMM:   9    -0.125405153765E+04   -0.36224E-04   -0.66675E-05  2081   0.170E-02    0.759E-02
RMM:  10    -0.125405153243E+04    0.52231E-05   -0.16055E-05  1678   0.826E-03    0.603E-02
RMM:  11    -0.125405152702E+04    0.54071E-05   -0.32070E-06  1453   0.329E-03    0.570E-02
RMM:  12    -0.125405152072E+04    0.62981E-05   -0.59316E-06  1533   0.521E-03    0.697E-02
RMM:  13    -0.125405152238E+04   -0.16631E-05   -0.91678E-07  1279   0.196E-03    0.692E-02
RMM:  14    -0.125405151932E+04    0.30682E-05   -0.12578E-05  1672   0.742E-03    0.353E-02
RMM:  15    -0.125405153488E+04   -0.15569E-04   -0.11842E-05  1607   0.760E-03    0.429E-02
RMM:  16    -0.125405153817E+04   -0.32848E-05   -0.78846E-06  1499   0.624E-03    0.236E-02
RMM:  17    -0.125405153956E+04   -0.13902E-05   -0.23242E-06  1402   0.391E-03    0.125E-02
RMM:  18    -0.125405154014E+04   -0.58075E-06   -0.90694E-07  1254   0.231E-03
 213 F= -.12627662E+04 E0= -.12627607E+04  d E =-.159843E-02  mag=    20.1012
 curvature:  -1.08 expect dE=-0.167E-01 dE for cont linesearch -0.272E-07
 trial: gam= 1.75255 g(F)=  0.155E-01 g(S)=  0.198E-04 ort = 0.798E-04 (trialstep = 0.477E-01)
 search vector abs. value=  0.791E+00
 bond charge predicted
       N       E                     dE             d eps       ncg     rms          rms(c)
DAV:   1    -0.125405154965E+04   -0.10089E-04   -0.37230E-01  2184   0.122E+00    0.141E-01
RMM:   2    -0.125405224886E+04   -0.69921E-03   -0.80327E-03  2348   0.156E-01    0.106E-01
RMM:   3    -0.125405255368E+04   -0.30482E-03   -0.84671E-04  2290   0.704E-02    0.326E-01
RMM:   4    -0.125405229617E+04    0.25751E-03   -0.35334E-04  2645   0.345E-02    0.859E-02
RMM:   5    -0.125405237495E+04   -0.78785E-04   -0.80893E-05  2089   0.199E-02    0.777E-02
RMM:   6    -0.125405237887E+04   -0.39188E-05   -0.33691E-05  2059   0.114E-02    0.551E-02
RMM:   7    -0.125405239440E+04   -0.15527E-04   -0.38225E-05  1961   0.126E-02    0.591E-02
RMM:   8    -0.125405239953E+04   -0.51329E-05   -0.25004E-05  1943   0.106E-02    0.406E-02
RMM:   9    -0.125405239932E+04    0.21455E-06   -0.12433E-05  1633   0.765E-03    0.284E-02
RMM:  10    -0.125405240149E+04   -0.21694E-05   -0.43406E-06  1436   0.462E-03    0.192E-02
RMM:  11    -0.125405240160E+04   -0.11685E-06   -0.14924E-06  1320   0.311E-03
 214 F= -.12627669E+04 E0= -.12627614E+04  d E =-.694950E-03  mag=    20.1017
 ZBRENT: can't locate minimum, use default step
 trial-energy change:   -0.000695  1 .order   -0.000701   -0.000748   -0.000655
 step:   0.1908(harm=  0.3833)  dis= 0.01289  next Energy= -1262.769165 (dE=-0.300E-02)
 bond charge predicted
       N       E                     dE             d eps       ncg     rms          rms(c)
DAV:   1    -0.125404665188E+04    0.57496E-02   -0.33512E+00  2104   0.366E+00    0.427E-01
RMM:   2    -0.125405333998E+04   -0.66881E-02   -0.72710E-02  2361   0.470E-01    0.312E-01
RMM:   3    -0.125405609380E+04   -0.27538E-02   -0.75492E-03  2323   0.207E-01    0.107E+00
RMM:   4    -0.125405362307E+04    0.24707E-02   -0.31810E-03  2697   0.103E-01    0.231E-01
RMM:   5    -0.125405429219E+04   -0.66912E-03   -0.74114E-04  2313   0.589E-02    0.255E-01
RMM:   6    -0.125405421867E+04    0.73516E-04   -0.29108E-04  2436   0.336E-02    0.145E-01
RMM:   7    -0.125405441191E+04   -0.19323E-03   -0.36245E-04  2350   0.386E-02    0.217E-01
RMM:   8    -0.125405431213E+04    0.99773E-04   -0.22948E-04  2351   0.313E-02    0.987E-02
RMM:   9    -0.125405433550E+04   -0.23364E-04   -0.10304E-04  2149   0.205E-02    0.857E-02
RMM:  10    -0.125405433751E+04   -0.20096E-05   -0.39639E-05  1888   0.126E-02    0.563E-02
RMM:  11    -0.125405434110E+04   -0.35932E-05   -0.15059E-05  1626   0.822E-03    0.317E-02
RMM:  12    -0.125405434732E+04   -0.62174E-05   -0.47922E-06  1469   0.478E-03    0.229E-02
RMM:  13    -0.125405434927E+04   -0.19564E-05   -0.15356E-06  1336   0.287E-03    0.204E-02
RMM:  14    -0.125405434970E+04   -0.42756E-06   -0.52944E-07  1245   0.155E-03
 215 F= -.12627683E+04 E0= -.12627627E+04  d E =-.213159E-02  mag=    20.1032
 curvature:  -6.49 expect dE=-0.473E-01 dE for cont linesearch -0.420E-03
 ZBRENT: increasing intervall
 opt :   0.4769  next Energy= -1262.768462 (dE=-0.230E-02)
 bond charge predicted
       N       E                     dE             d eps       ncg     rms          rms(c)
DAV:   1    -0.125402452612E+04    0.29823E-01   -0.13410E+01  2104   0.734E+00    0.858E-01
RMM:   2    -0.125405212068E+04   -0.27595E-01   -0.29260E-01  2352   0.946E-01    0.627E-01
RMM:   3    -0.125406329843E+04   -0.11178E-01   -0.30815E-02  2308   0.418E-01    0.224E+00
RMM:   4    -0.125405318936E+04    0.10109E-01   -0.13155E-02  2697   0.211E-01    0.492E-01
RMM:   5    -0.125405557151E+04   -0.23821E-02   -0.30912E-03  2333   0.122E-01    0.493E-01
RMM:   6    -0.125405527831E+04    0.29320E-03   -0.11773E-03  2482   0.667E-02    0.302E-01
RMM:   7    -0.125405586770E+04   -0.58939E-03   -0.13882E-03  2354   0.759E-02    0.440E-01
RMM:   8    -0.125405550971E+04    0.35799E-03   -0.95773E-04  2387   0.625E-02    0.220E-01
RMM:   9    -0.125405553806E+04   -0.28349E-04   -0.43131E-04  2313   0.430E-02    0.167E-01
RMM:  10    -0.125405556542E+04   -0.27354E-04   -0.17335E-04  2282   0.260E-02    0.127E-01
RMM:  11    -0.125405556494E+04    0.47909E-06   -0.63562E-05  1971   0.167E-02    0.648E-02
RMM:  12    -0.125405558439E+04   -0.19449E-04   -0.18871E-05  1723   0.853E-03    0.524E-02
RMM:  13    -0.125405558695E+04   -0.25694E-05   -0.52188E-06  1518   0.439E-03    0.491E-02
RMM:  14    -0.125405558459E+04    0.23650E-05   -0.12510E-06  1310   0.202E-03    0.500E-02
RMM:  15    -0.125405556035E+04    0.24237E-04   -0.80633E-06  1642   0.623E-03    0.595E-02
RMM:  16    -0.125405557604E+04   -0.15691E-04   -0.13163E-05  1664   0.777E-03    0.621E-02
RMM:  17    -0.125405558457E+04   -0.85294E-05   -0.74364E-06  1572   0.607E-03    0.514E-02
RMM:  18    -0.125405559219E+04   -0.76121E-05   -0.35475E-06  1429   0.403E-03    0.534E-02
RMM:  19    -0.125405559444E+04   -0.22591E-05   -0.34891E-06  1404   0.367E-03    0.593E-02
RMM:  20    -0.125405559600E+04   -0.15515E-05   -0.99231E-07  1211   0.199E-03    0.609E-02
RMM:  21    -0.125405561217E+04   -0.16177E-04   -0.41003E-06  1391   0.447E-03    0.437E-02
RMM:  22    -0.125405563471E+04   -0.22536E-04   -0.12224E-05  1706   0.657E-03    0.223E-02
RMM:  23    -0.125405565721E+04   -0.22499E-04   -0.88677E-06  1590   0.559E-03    0.204E-02
RMM:  24    -0.125405567532E+04   -0.18113E-04   -0.44028E-06  1456   0.408E-03    0.143E-02
RMM:  25    -0.125405570678E+04   -0.31464E-04   -0.17342E-06  1314   0.291E-03    0.882E-03
RMM:  26    -0.125405574089E+04   -0.34111E-04   -0.14631E-06  1297   0.254E-03    0.563E-03
RMM:  27    -0.125405575766E+04   -0.16760E-04   -0.81442E-07  1219   0.184E-03    0.512E-03
RMM:  28    -0.125405576878E+04   -0.11125E-04   -0.44813E-07  1149   0.130E-03    0.467E-03
RMM:  29    -0.125405578223E+04   -0.13451E-04   -0.34760E-07  1098   0.100E-03    0.391E-03
RMM:  30    -0.125405580131E+04   -0.19084E-04   -0.40196E-07  1113   0.902E-04    0.346E-03
RMM:  31    -0.125405581817E+04   -0.16857E-04   -0.38059E-07  1122   0.889E-04    0.250E-03
RMM:  32    -0.125405583336E+04   -0.15183E-04   -0.41748E-07  1117   0.830E-04    0.158E-03
RMM:  33    -0.125405584743E+04   -0.14076E-04   -0.40499E-07  1102   0.837E-04    0.951E-04
RMM:  34    -0.125405585543E+04   -0.79991E-05   -0.33312E-07  1018   0.749E-04    0.770E-04
RMM:  35    -0.125405586309E+04   -0.76593E-05   -0.28171E-07  1023   0.684E-04    0.877E-04
RMM:  36    -0.125405587257E+04   -0.94848E-05   -0.30863E-07  1017   0.678E-04    0.529E-04
RMM:  37    -0.125405588178E+04   -0.92013E-05   -0.36359E-07  1064   0.697E-04    0.490E-04
RMM:  38    -0.125405588731E+04   -0.55349E-05   -0.31947E-07  1008   0.698E-04    0.367E-04
RMM:  39    -0.125405589087E+04   -0.35638E-05   -0.26845E-07   967   0.633E-04    0.301E-04
RMM:  40    -0.125405589388E+04   -0.30025E-05   -0.25086E-07  1004   0.626E-04    0.168E-04
RMM:  41    -0.125405589534E+04   -0.14658E-05   -0.19601E-07   951   0.575E-04    0.137E-04
RMM:  42    -0.125405589595E+04   -0.60286E-06   -0.13803E-07   862   0.512E-04
 216 F= -.12627688E+04 E0= -.12627630E+04  d E =-.259963E-02  mag=    20.1070
 curvature:  -2.61 expect dE=-0.703E-01 dE for cont linesearch -0.761E-04
 ZBRENT: bracketing found
 ZBRENT: interpolating
 opt :   0.3621  next Energy= -1262.769037 (dE=-0.288E-02)
 bond charge predicted
       N       E                     dE             d eps       ncg     rms          rms(c)
DAV:   1    -0.125405073604E+04    0.51593E-02   -0.21599E+00  2154   0.294E+00    0.342E-01
RMM:   2    -0.125405501902E+04   -0.42830E-02   -0.46774E-02  2348   0.376E-01    0.252E-01
RMM:   3    -0.125405675468E+04   -0.17357E-02   -0.48536E-03  2302   0.167E-01    0.791E-01
RMM:   4    -0.125405526572E+04    0.14890E-02   -0.20316E-03  2690   0.830E-02    0.173E-01
RMM:   5    -0.125405566019E+04   -0.39447E-03   -0.45240E-04  2299   0.454E-02    0.211E-01
RMM:   6    -0.125405559576E+04    0.64431E-04   -0.19264E-04  2390   0.273E-02    0.118E-01
RMM:   7    -0.125405573090E+04   -0.13514E-03   -0.23850E-04  2340   0.311E-02    0.177E-01
RMM:   8    -0.125405566257E+04    0.68331E-04   -0.15007E-04  2321   0.254E-02    0.751E-02
RMM:   9    -0.125405568546E+04   -0.22888E-04   -0.65205E-05  2032   0.161E-02    0.698E-02
RMM:  10    -0.125405568206E+04    0.33919E-05   -0.22291E-05  1709   0.979E-03    0.413E-02
RMM:  11    -0.125405568362E+04   -0.15577E-05   -0.63651E-06  1524   0.550E-03    0.281E-02
RMM:  12    -0.125405568415E+04   -0.52606E-06   -0.15333E-06  1325   0.264E-03
 217 F= -.12627690E+04 E0= -.12627633E+04  d E =-.282977E-02  mag=    20.1062
 curvature:  -9.46 expect dE=-0.137E+00 dE for cont linesearch -0.168E-05
 trial: gam= 0.95279 g(F)=  0.143E-01 g(S)=  0.163E-03 ort = 0.374E-03 (trialstep = 0.111E+00)
 search vector abs. value=  0.733E+00
 bond charge predicted
       N       E                     dE             d eps       ncg     rms          rms(c)
DAV:   1    -0.125405308746E+04    0.25962E-02   -0.19022E+00  2170   0.275E+00    0.291E-01
RMM:   2    -0.125405676475E+04   -0.36773E-02   -0.40095E-02  2356   0.345E-01    0.203E-01
RMM:   3    -0.125405779181E+04   -0.10271E-02   -0.37462E-03  2316   0.148E-01    0.562E-01
RMM:   4    -0.125405712251E+04    0.66930E-03   -0.15348E-03  2728   0.680E-02    0.176E-01
RMM:   5    -0.125405734707E+04   -0.22456E-03   -0.34009E-04  2252   0.394E-02    0.203E-01
RMM:   6    -0.125405727821E+04    0.68858E-04   -0.16736E-04  2331   0.254E-02    0.100E-01
RMM:   7    -0.125405738519E+04   -0.10698E-03   -0.18122E-04  2338   0.277E-02    0.148E-01
RMM:   8    -0.125405735543E+04    0.29767E-04   -0.10755E-04  2220   0.212E-02    0.793E-02
RMM:   9    -0.125405735643E+04   -0.10080E-05   -0.37461E-05  1889   0.128E-02    0.526E-02
RMM:  10    -0.125405735543E+04    0.10039E-05   -0.12723E-05  1642   0.689E-03    0.445E-02
RMM:  11    -0.125405735363E+04    0.17956E-05   -0.79812E-06  1546   0.601E-03    0.379E-02
RMM:  12    -0.125405736276E+04   -0.91281E-05   -0.18562E-05  1768   0.859E-03    0.463E-02
RMM:  13    -0.125405736708E+04   -0.43151E-05   -0.15821E-05  1637   0.832E-03    0.383E-02
RMM:  14    -0.125405736845E+04   -0.13694E-05   -0.69759E-06  1555   0.606E-03    0.304E-02
RMM:  15    -0.125405736712E+04    0.13315E-05   -0.49452E-06  1477   0.475E-03    0.219E-02
RMM:  16    -0.125405736664E+04    0.47091E-06   -0.34685E-06  1421   0.394E-03
 218 F= -.12627705E+04 E0= -.12627647E+04  d E =-.146184E-02  mag=    20.1068
 ZBRENT: can't locate minimum, use default step
 trial-energy change:   -0.001462  1 .order   -0.001464   -0.001638   -0.001291
 step:   0.4423(harm=  0.5223)  dis= 0.02925  next Energy= -1262.772860 (dE=-0.387E-02)
 bond charge predicted
       N       E                     dE             d eps       ncg     rms          rms(c)
DAV:   1    -0.125402130097E+04    0.36066E-01   -0.17125E+01  2104   0.823E+00    0.882E-01
RMM:   2    -0.125405598535E+04   -0.34684E-01   -0.36595E-01  2351   0.105E+00    0.683E-01
RMM:   3    -0.125406851800E+04   -0.12533E-01   -0.36676E-02  2307   0.457E-01    0.237E+00
RMM:   4    -0.125405746767E+04    0.11050E-01   -0.15874E-02  2710   0.226E-01    0.522E-01
RMM:   5    -0.125406011016E+04   -0.26425E-02   -0.36282E-03  2339   0.133E-01    0.535E-01
RMM:   6    -0.125405971638E+04    0.39378E-03   -0.15548E-03  2444   0.759E-02    0.333E-01
RMM:   7    -0.125406028819E+04   -0.57181E-03   -0.17149E-03  2350   0.854E-02    0.460E-01
RMM:   8    -0.125405995733E+04    0.33086E-03   -0.12007E-03  2400   0.691E-02    0.254E-01
RMM:   9    -0.125405992631E+04    0.31016E-04   -0.49960E-04  2315   0.468E-02    0.159E-01
RMM:  10    -0.125405997176E+04   -0.45447E-04   -0.18035E-04  2304   0.257E-02    0.135E-01
RMM:  11    -0.125405995604E+04    0.15722E-04   -0.62890E-05  1964   0.164E-02    0.671E-02
RMM:  12    -0.125405997501E+04   -0.18967E-04   -0.23604E-05  1799   0.914E-03    0.555E-02
RMM:  13    -0.125405998845E+04   -0.13440E-04   -0.13047E-05  1658   0.741E-03    0.486E-02
RMM:  14    -0.125406002537E+04   -0.36920E-04   -0.23298E-05  1865   0.977E-03    0.600E-02
RMM:  15    -0.125406007278E+04   -0.47410E-04   -0.25467E-05  1869   0.109E-02    0.488E-02
RMM:  16    -0.125406008953E+04   -0.16752E-04   -0.12234E-05  1580   0.772E-03    0.457E-02
RMM:  17    -0.125406008720E+04    0.23289E-05   -0.62496E-06  1520   0.581E-03    0.332E-02
RMM:  18    -0.125406008610E+04    0.10963E-05   -0.31721E-06  1429   0.375E-03    0.267E-02
RMM:  19    -0.125406008933E+04   -0.32255E-05   -0.23497E-06  1337   0.329E-03    0.217E-02
RMM:  20    -0.125406010216E+04   -0.12833E-04   -0.25041E-06  1364   0.333E-03    0.120E-02
RMM:  21    -0.125406012446E+04   -0.22300E-04   -0.15406E-06  1303   0.265E-03    0.821E-03
RMM:  22    -0.125406014481E+04   -0.20344E-04   -0.95324E-07  1248   0.216E-03    0.626E-03
RMM:  23    -0.125406015952E+04   -0.14715E-04   -0.67681E-07  1188   0.178E-03    0.737E-03
RMM:  24    -0.125406016781E+04   -0.82855E-05   -0.51521E-07  1164   0.148E-03    0.604E-03
RMM:  25    -0.125406018160E+04   -0.13794E-04   -0.39462E-07  1144   0.120E-03    0.334E-03
RMM:  26    -0.125406019853E+04   -0.16925E-04   -0.39810E-07  1148   0.109E-03    0.296E-03
RMM:  27    -0.125406021287E+04   -0.14348E-04   -0.33796E-07  1087   0.942E-04    0.200E-03
RMM:  28    -0.125406022174E+04   -0.88692E-05   -0.24243E-07   997   0.719E-04    0.124E-03
RMM:  29    -0.125406022961E+04   -0.78708E-05   -0.19032E-07   959   0.626E-04    0.102E-03
RMM:  30    -0.125406023902E+04   -0.94079E-05   -0.19878E-07   977   0.587E-04    0.939E-04
RMM:  31    -0.125406025065E+04   -0.11629E-04   -0.25304E-07  1066   0.626E-04    0.886E-04
RMM:  32    -0.125406026138E+04   -0.10732E-04   -0.28419E-07  1044   0.666E-04    0.604E-04
RMM:  33    -0.125406026795E+04   -0.65642E-05   -0.25638E-07   982   0.648E-04    0.432E-04
RMM:  34    -0.125406027161E+04   -0.36601E-05   -0.19834E-07   940   0.583E-04    0.348E-04
RMM:  35    -0.125406027534E+04   -0.37346E-05   -0.17623E-07   909   0.541E-04    0.290E-04
RMM:  36    -0.125406027985E+04   -0.45107E-05   -0.19575E-07   982   0.551E-04    0.254E-04
RMM:  37    -0.125406028253E+04   -0.26797E-05   -0.17185E-07   952   0.553E-04    0.212E-04
RMM:  38    -0.125406028397E+04   -0.14395E-05   -0.13728E-07   852   0.493E-04    0.134E-04
RMM:  39    -0.125406028515E+04   -0.11791E-05   -0.12205E-07   879   0.475E-04    0.113E-04
RMM:  40    -0.125406028583E+04   -0.67952E-06   -0.10155E-07   862   0.448E-04
 219 F= -.12627726E+04 E0= -.12627667E+04  d E =-.363812E-02  mag=    20.1107
 curvature: -12.44 expect dE=-0.252E+00 dE for cont linesearch -0.437E-04
 trial: gam= 1.27385 g(F)=  0.201E-01 g(S)=  0.145E-03 ort = 0.161E-02 (trialstep = 0.107E+00)
 search vector abs. value=  0.121E+01
 bond charge predicted
       N       E                     dE             d eps       ncg     rms          rms(c)
DAV:   1    -0.125405588928E+04    0.43959E-02   -0.29276E+00  2148   0.341E+00    0.369E-01
RMM:   2    -0.125406160799E+04   -0.57187E-02   -0.62291E-02  2342   0.427E-01    0.293E-01
RMM:   3    -0.125406422358E+04   -0.26156E-02   -0.64609E-03  2288   0.194E-01    0.110E+00
RMM:   4    -0.125406162004E+04    0.26035E-02   -0.28412E-03  2694   0.975E-02    0.201E-01
RMM:   5    -0.125406233762E+04   -0.71758E-03   -0.62470E-04  2304   0.549E-02    0.228E-01
RMM:   6    -0.125406231264E+04    0.24976E-04   -0.27676E-04  2405   0.323E-02    0.152E-01
RMM:   7    -0.125406240865E+04   -0.96010E-04   -0.27514E-04  2371   0.345E-02    0.174E-01
RMM:   8    -0.125406239177E+04    0.16883E-04   -0.19786E-04  2324   0.283E-02    0.115E-01
RMM:   9    -0.125406238360E+04    0.81662E-05   -0.83704E-05  2124   0.195E-02    0.748E-02
RMM:  10    -0.125406239102E+04   -0.74160E-05   -0.29722E-05  1818   0.108E-02    0.609E-02
RMM:  11    -0.125406238831E+04    0.27131E-05   -0.10066E-05  1571   0.700E-03    0.288E-02
RMM:  12    -0.125406239368E+04   -0.53773E-05   -0.33090E-06  1407   0.364E-03    0.224E-02
