       N       E                     dE             d eps       ncg     rms          rms(c)
DAV:   1     0.891089735831E+04    0.89109E+04   -0.35331E+05  2104   0.137E+03
DAV:   2     0.828482216603E+03   -0.80824E+04   -0.72947E+04  2496   0.423E+02
DAV:   3    -0.128144122679E+04   -0.21099E+04   -0.19943E+04  3472   0.215E+02
DAV:   4    -0.144709903390E+04   -0.16566E+03   -0.15369E+03  3240   0.677E+01
DAV:   5    -0.145637531515E+04   -0.92763E+01   -0.85400E+01  3464   0.154E+01    0.161E+02
RMM:   6    -0.196008526734E+04   -0.50371E+03   -0.35058E+03  2864   0.133E+02    0.525E+02
RMM:   7    -0.172360143006E+04    0.23648E+03   -0.25804E+02  2128   0.456E+01    0.324E+02
RMM:   8    -0.129438829349E+04    0.42921E+03   -0.55780E+02  2350   0.471E+01    0.117E+02
RMM:   9    -0.140214270710E+04   -0.10775E+03   -0.13668E+02  2325   0.231E+01    0.172E+02
RMM:  10    -0.147747562888E+04   -0.75333E+02   -0.93377E+01  2318   0.207E+01    0.189E+02
RMM:  11    -0.131212012765E+04    0.16536E+03   -0.60489E+01  2135   0.175E+01    0.114E+02
RMM:  12    -0.141080096461E+04   -0.98681E+02   -0.78029E+01  2126   0.206E+01    0.151E+02
RMM:  13    -0.139997343955E+04    0.10828E+02   -0.69131E+01  2232   0.176E+01    0.146E+02
RMM:  14    -0.126594901223E+04    0.13402E+03   -0.58865E+01  2304   0.159E+01    0.117E+02
RMM:  15    -0.126693840948E+04   -0.98940E+00   -0.54331E+01  2218   0.147E+01    0.104E+02
RMM:  16    -0.125168991236E+04    0.15248E+02   -0.25771E+01  2320   0.992E+00    0.119E+02
RMM:  17    -0.121243441298E+04    0.39255E+02   -0.21696E+01  2275   0.941E+00    0.815E+01
RMM:  18    -0.121811720479E+04   -0.56828E+01   -0.12821E+01  2277   0.710E+00    0.897E+01
RMM:  19    -0.120946330843E+04    0.86539E+01   -0.87854E+00  2251   0.601E+00    0.705E+01
RMM:  20    -0.119812790037E+04    0.11335E+02   -0.43827E+00  2287   0.432E+00    0.449E+01
RMM:  21    -0.120075213747E+04   -0.26242E+01   -0.41640E+00  2273   0.407E+00    0.573E+01
RMM:  22    -0.119890354080E+04    0.18486E+01   -0.33917E+00  2234   0.401E+00    0.401E+01
RMM:  23    -0.119837752004E+04    0.52602E+00   -0.66821E-01  2275   0.172E+00    0.352E+01
RMM:  24    -0.120046717573E+04   -0.20897E+01   -0.59043E-01  2255   0.150E+00    0.395E+01
RMM:  25    -0.120001505687E+04    0.45212E+00   -0.34304E-01  2242   0.124E+00    0.367E+01
RMM:  26    -0.120007290166E+04   -0.57845E-01   -0.26045E-01  2211   0.102E+00    0.360E+01
RMM:  27    -0.119989506182E+04    0.17784E+00   -0.14022E-01  2300   0.736E-01    0.331E+01
RMM:  28    -0.120021084912E+04   -0.31579E+00   -0.13539E-01  2236   0.717E-01    0.332E+01
RMM:  29    -0.120096148035E+04   -0.75063E+00   -0.13788E-01  2242   0.705E-01    0.350E+01
RMM:  30    -0.120140656978E+04   -0.44509E+00   -0.40483E-01  2276   0.116E+00    0.370E+01
RMM:  31    -0.120277646340E+04   -0.13699E+01   -0.26397E-01  2229   0.104E+00    0.439E+01
RMM:  32    -0.120235138838E+04    0.42508E+00   -0.36487E-01  2214   0.120E+00    0.388E+01
RMM:  33    -0.120239386569E+04   -0.42477E-01   -0.20096E-01  2210   0.102E+00    0.350E+01
RMM:  34    -0.120292079677E+04   -0.52693E+00   -0.58239E-01  2219   0.150E+00    0.398E+01
RMM:  35    -0.120188219229E+04    0.10386E+01   -0.38566E-01  2175   0.140E+00    0.322E+01
RMM:  36    -0.120197705469E+04   -0.94862E-01   -0.14503E-01  2242   0.819E-01    0.341E+01
RMM:  37    -0.120200424583E+04   -0.27191E-01   -0.41031E-02  2369   0.433E-01    0.350E+01
RMM:  38    -0.120197521655E+04    0.29029E-01   -0.27546E-02  2234   0.355E-01    0.352E+01
RMM:  39    -0.120249745063E+04   -0.52223E+00   -0.12724E-01  2221   0.666E-01    0.363E+01
RMM:  40    -0.120261100401E+04   -0.11355E+00   -0.34171E-02  2307   0.369E-01    0.363E+01
RMM:  41    -0.120269216471E+04   -0.81161E-01   -0.15994E-02  2538   0.205E-01    0.367E+01
RMM:  42    -0.120266715171E+04    0.25013E-01   -0.49655E-03  2237   0.151E-01    0.373E+01
RMM:  43    -0.120290301964E+04   -0.23587E+00   -0.22344E-02  2200   0.278E-01    0.379E+01
RMM:  44    -0.120318482974E+04   -0.28181E+00   -0.42427E-02  2205   0.400E-01    0.388E+01
RMM:  45    -0.120383812465E+04   -0.65329E+00   -0.53658E-01  2218   0.138E+00    0.355E+01
RMM:  46    -0.120455145441E+04   -0.71333E+00   -0.33788E-01  2323   0.109E+00    0.351E+01
RMM:  47    -0.120465713151E+04   -0.10568E+00   -0.27739E-01  2372   0.913E-01    0.352E+01
RMM:  48    -0.120644255425E+04   -0.17854E+01   -0.12845E+00  2248   0.202E+00    0.363E+01
RMM:  49    -0.120673794635E+04   -0.29539E+00   -0.10413E+00  2190   0.186E+00    0.331E+01
RMM:  50    -0.120756411504E+04   -0.82617E+00   -0.72039E-01  2361   0.154E+00    0.310E+01
RMM:  51    -0.121036645609E+04   -0.28023E+01   -0.30742E+00  2232   0.310E+00    0.374E+01
RMM:  52    -0.120951329760E+04    0.85316E+00   -0.58794E-01  2313   0.150E+00    0.347E+01
RMM:  53    -0.120944555931E+04    0.67738E-01   -0.85686E-01  2309   0.162E+00    0.356E+01
RMM:  54    -0.120963091464E+04   -0.18536E+00   -0.57827E-01  2327   0.140E+00    0.332E+01
RMM:  55    -0.121005597458E+04   -0.42506E+00   -0.45267E-01  2433   0.113E+00    0.327E+01
RMM:  56    -0.121192701050E+04   -0.18710E+01   -0.13346E+00  2233   0.221E+00    0.384E+01
RMM:  57    -0.121175868876E+04    0.16832E+00   -0.69909E-01  2231   0.172E+00    0.341E+01
RMM:  58    -0.121150606561E+04    0.25262E+00   -0.44744E-01  2292   0.132E+00    0.320E+01
RMM:  59    -0.121052856121E+04    0.97750E+00   -0.48863E-01  2353   0.125E+00    0.318E+01
RMM:  60    -0.120890722162E+04    0.16213E+01   -0.80256E-01  2154   0.172E+00    0.362E+01
RMM:  61    -0.120973570280E+04   -0.82848E+00   -0.58049E-01  2383   0.147E+00    0.410E+01
RMM:  62    -0.120928867832E+04    0.44702E+00   -0.14563E-01  2308   0.712E-01    0.410E+01
RMM:  63    -0.120897711927E+04    0.31156E+00   -0.25333E-01  2214   0.954E-01    0.431E+01
RMM:  64    -0.120892877567E+04    0.48344E-01   -0.55301E-02  2412   0.462E-01    0.435E+01
RMM:  65    -0.120879720703E+04    0.13157E+00   -0.11606E-02  2647   0.173E-01    0.436E+01
RMM:  66    -0.121337569280E+04   -0.45785E+01   -0.23663E+00  2148   0.288E+00    0.438E+01
RMM:  67    -0.121164801632E+04    0.17277E+01   -0.94844E-01  2142   0.212E+00    0.351E+01
RMM:  68    -0.121327418470E+04   -0.16262E+01   -0.65158E-01  2199   0.164E+00    0.359E+01
RMM:  69    -0.121445256651E+04   -0.11784E+01   -0.80262E-01  2287   0.177E+00    0.394E+01
RMM:  70    -0.121550130027E+04   -0.10487E+01   -0.41694E-01  2253   0.137E+00    0.395E+01
RMM:  71    -0.121844104845E+04   -0.29397E+01   -0.10484E+00  2205   0.202E+00    0.421E+01
RMM:  72    -0.121858309548E+04   -0.14205E+00   -0.51163E-01  2253   0.144E+00    0.406E+01
RMM:  73    -0.121978206658E+04   -0.11990E+01   -0.23252E-01  2259   0.931E-01    0.399E+01
RMM:  74    -0.122126757788E+04   -0.14855E+01   -0.42386E-01  2216   0.124E+00    0.421E+01
RMM:  75    -0.122205967928E+04   -0.79210E+00   -0.45270E-01  2385   0.117E+00    0.352E+01
RMM:  76    -0.123453913369E+04   -0.12479E+02   -0.34700E+00  2162   0.349E+00    0.598E+01
RMM:  77    -0.123048434825E+04    0.40548E+01   -0.13730E+00  2230   0.254E+00    0.438E+01
RMM:  78    -0.123094397678E+04   -0.45963E+00   -0.60484E-01  2357   0.138E+00    0.413E+01
RMM:  79    -0.123075748443E+04    0.18649E+00   -0.12844E-01  2290   0.749E-01    0.414E+01
RMM:  80    -0.123059448913E+04    0.16300E+00   -0.33700E-02  2555   0.315E-01    0.412E+01
RMM:  81    -0.123403098264E+04   -0.34365E+01   -0.40471E+00  2223   0.376E+00    0.502E+01
RMM:  82    -0.123092149957E+04    0.31095E+01   -0.25451E+00  2210   0.359E+00    0.374E+01
RMM:  83    -0.123140520760E+04   -0.48371E+00   -0.79676E-01  2246   0.184E+00    0.326E+01
RMM:  84    -0.123325048329E+04   -0.18453E+01   -0.43235E-01  2293   0.123E+00    0.338E+01
RMM:  85    -0.123313237436E+04    0.11811E+00   -0.29586E-01  2324   0.104E+00    0.286E+01
RMM:  86    -0.123202714520E+04    0.11052E+01   -0.81751E-01  2184   0.182E+00    0.261E+01
RMM:  87    -0.123275366507E+04   -0.72652E+00   -0.61598E-01  2271   0.157E+00    0.238E+01
RMM:  88    -0.123440526268E+04   -0.16516E+01   -0.50910E-01  2198   0.142E+00    0.193E+01
RMM:  89    -0.123525784561E+04   -0.85258E+00   -0.22095E-01  2404   0.863E-01    0.182E+01
RMM:  90    -0.123631464560E+04   -0.10568E+01   -0.21737E-01  2208   0.819E-01    0.195E+01
RMM:  91    -0.123695641341E+04   -0.64177E+00   -0.70340E-01  2217   0.170E+00    0.288E+01
RMM:  92    -0.123700361159E+04   -0.47198E-01   -0.43179E-01  2218   0.131E+00    0.227E+01
RMM:  93    -0.123864043523E+04   -0.16368E+01   -0.34682E-01  2231   0.109E+00    0.291E+01
RMM:  94    -0.123881199781E+04   -0.17156E+00   -0.13074E-01  2426   0.627E-01    0.275E+01
RMM:  95    -0.123920701288E+04   -0.39502E+00   -0.22098E-01  2209   0.866E-01    0.200E+01
RMM:  96    -0.123975200196E+04   -0.54499E+00   -0.29687E-01  2271   0.114E+00    0.194E+01
RMM:  97    -0.123957949601E+04    0.17251E+00   -0.16418E-01  2322   0.741E-01    0.181E+01
RMM:  98    -0.124002199987E+04   -0.44250E+00   -0.91691E-02  2297   0.582E-01    0.176E+01
RMM:  99    -0.124016500133E+04   -0.14300E+00   -0.47134E-02  2498   0.364E-01    0.196E+01
RMM: 100    -0.123980250813E+04    0.36249E+00   -0.37536E-02  2168   0.373E-01    0.205E+01
RMM: 101    -0.124071851531E+04   -0.91601E+00   -0.40997E-01  2151   0.121E+00    0.231E+01
RMM: 102    -0.124084037545E+04   -0.12186E+00   -0.16162E-01  2169   0.955E-01    0.257E+01
RMM: 103    -0.124096676060E+04   -0.12639E+00   -0.44005E-02  2365   0.450E-01    0.268E+01
RMM: 104    -0.124098642576E+04   -0.19665E-01   -0.16225E-02  2328   0.249E-01    0.266E+01
RMM: 105    -0.124105744721E+04   -0.71021E-01   -0.72911E-03  2374   0.152E-01    0.271E+01
RMM: 106    -0.124015976566E+04    0.89768E+00   -0.36020E-01  2181   0.116E+00    0.214E+01
RMM: 107    -0.124058314907E+04   -0.42338E+00   -0.19291E-01  2150   0.993E-01    0.195E+01
RMM: 108    -0.124107409400E+04   -0.49094E+00   -0.76581E-02  2231   0.562E-01    0.214E+01
RMM: 109    -0.124120471894E+04   -0.13062E+00   -0.39372E-02  2416   0.371E-01    0.223E+01
RMM: 110    -0.124153923772E+04   -0.33452E+00   -0.46113E-02  2193   0.406E-01    0.219E+01
RMM: 111    -0.124302844401E+04   -0.14892E+01   -0.39985E-01  2143   0.122E+00    0.287E+01
RMM: 112    -0.124247936826E+04    0.54908E+00   -0.17222E-01  2171   0.911E-01    0.238E+01
RMM: 113    -0.124271003408E+04   -0.23067E+00   -0.10931E-01  2236   0.663E-01    0.211E+01
RMM: 114    -0.124309936682E+04   -0.38933E+00   -0.84644E-02  2219   0.587E-01    0.212E+01
RMM: 115    -0.124383652335E+04   -0.73716E+00   -0.13123E-01  2300   0.637E-01    0.198E+01
RMM: 116    -0.124625704787E+04   -0.24205E+01   -0.67917E-01  2291   0.166E+00    0.322E+01
RMM: 117    -0.124542785928E+04    0.82919E+00   -0.31845E-01  2186   0.129E+00    0.261E+01
RMM: 118    -0.124500319887E+04    0.42466E+00   -0.17952E-01  2270   0.850E-01    0.250E+01
RMM: 119    -0.124495526797E+04    0.47931E-01   -0.43966E-02  2361   0.393E-01    0.222E+01
RMM: 120    -0.124492826262E+04    0.27005E-01   -0.50492E-02  2234   0.445E-01
   1 F= -.12534961E+04 E0= -.12534606E+04  d E =-.125350E+04  mag=    16.2564
       N       E                     dE             d eps       ncg     rms          rms(c)
DAV:   1    -0.124639242753E+04   -0.14372E+01   -0.24194E+02  2440   0.417E+01    0.287E+01
RMM:   2    -0.132934927240E+04   -0.82957E+02   -0.60075E+01  2148   0.178E+01    0.134E+02
RMM:   3    -0.127833144155E+04    0.51018E+02   -0.44247E+01  2151   0.161E+01    0.891E+01
RMM:   4    -0.124927134769E+04    0.29060E+02   -0.10019E+01  2298   0.725E+00    0.528E+01
RMM:   5    -0.124812942935E+04    0.11419E+01   -0.62511E+00  2257   0.515E+00    0.479E+01
RMM:   6    -0.125439729810E+04   -0.62679E+01   -0.72421E+00  2259   0.528E+00    0.546E+01
RMM:   7    -0.124611868944E+04    0.82786E+01   -0.32368E+00  2227   0.406E+00    0.236E+01
RMM:   8    -0.124633859379E+04   -0.21990E+00   -0.20675E+00  2272   0.284E+00    0.246E+01
RMM:   9    -0.124727303703E+04   -0.93444E+00   -0.98543E-01  2360   0.198E+00    0.304E+01
RMM:  10    -0.124675316435E+04    0.51987E+00   -0.77768E-01  2283   0.182E+00    0.184E+01
RMM:  11    -0.124755791371E+04   -0.80475E+00   -0.63239E-01  2333   0.159E+00    0.290E+01
RMM:  12    -0.124718266242E+04    0.37525E+00   -0.61769E-01  2294   0.170E+00    0.193E+01
RMM:  13    -0.124795843597E+04   -0.77577E+00   -0.47384E-01  2242   0.144E+00    0.245E+01
RMM:  14    -0.124747925013E+04    0.47919E+00   -0.21059E-01  2292   0.102E+00    0.163E+01
RMM:  15    -0.124799790177E+04   -0.51865E+00   -0.38781E-01  2277   0.119E+00    0.166E+01
RMM:  16    -0.124788324422E+04    0.11466E+00   -0.28073E-01  2271   0.113E+00    0.159E+01
RMM:  17    -0.124801369103E+04   -0.13045E+00   -0.84199E-02  2266   0.691E-01    0.163E+01
RMM:  18    -0.124804524542E+04   -0.31554E-01   -0.78912E-02  2238   0.538E-01    0.163E+01
RMM:  19    -0.124799610442E+04    0.49141E-01   -0.46631E-02  2351   0.425E-01    0.148E+01
RMM:  20    -0.124801019936E+04   -0.14095E-01   -0.89502E-03  2501   0.167E-01    0.147E+01
RMM:  21    -0.124811905683E+04   -0.10886E+00   -0.24248E-02  2193   0.315E-01    0.150E+01
RMM:  22    -0.124814013546E+04   -0.21079E-01   -0.10606E-01  2268   0.660E-01    0.133E+01
RMM:  23    -0.124811509184E+04    0.25044E-01   -0.79089E-02  2250   0.607E-01    0.107E+01
RMM:  24    -0.124820773504E+04   -0.92643E-01   -0.24987E-02  2277   0.371E-01    0.105E+01
RMM:  25    -0.124838134609E+04   -0.17361E+00   -0.34401E-02  2327   0.354E-01    0.113E+01
RMM:  26    -0.124881836401E+04   -0.43702E+00   -0.15940E-01  2191   0.786E-01    0.124E+01
RMM:  27    -0.124913071208E+04   -0.31235E+00   -0.20155E-01  2271   0.916E-01    0.112E+01
RMM:  28    -0.124940175237E+04   -0.27104E+00   -0.13925E-01  2309   0.742E-01    0.107E+01
RMM:  29    -0.124946841431E+04   -0.66662E-01   -0.75074E-02  2305   0.594E-01    0.840E+00
RMM:  30    -0.124965171876E+04   -0.18330E+00   -0.76704E-02  2280   0.529E-01    0.915E+00
RMM:  31    -0.124974456354E+04   -0.92845E-01   -0.57753E-02  2325   0.483E-01    0.995E+00
RMM:  32    -0.124980727079E+04   -0.62707E-01   -0.35786E-02  2292   0.374E-01    0.101E+01
RMM:  33    -0.124982972170E+04   -0.22451E-01   -0.19699E-02  2324   0.277E-01    0.107E+01
RMM:  34    -0.124984357082E+04   -0.13849E-01   -0.56904E-03  2407   0.155E-01    0.109E+01
RMM:  35    -0.124990127158E+04   -0.57701E-01   -0.66314E-03  2308   0.175E-01    0.114E+01
RMM:  36    -0.124989092752E+04    0.10344E-01   -0.22561E-03  2297   0.957E-02    0.114E+01
RMM:  37    -0.124989266996E+04   -0.17424E-02   -0.18282E-03  2244   0.921E-02    0.116E+01
RMM:  38    -0.124981966924E+04    0.73001E-01   -0.12274E-02  2116   0.236E-01    0.106E+01
RMM:  39    -0.124964993351E+04    0.16974E+00   -0.59314E-02  2223   0.482E-01    0.797E+00
RMM:  40    -0.124977019050E+04   -0.12026E+00   -0.74109E-02  2215   0.563E-01    0.774E+00
RMM:  41    -0.124980383438E+04   -0.33644E-01   -0.42668E-02  2613   0.344E-01    0.745E+00
RMM:  42    -0.124988767491E+04   -0.83841E-01   -0.12594E-02  2500   0.199E-01    0.755E+00
RMM:  43    -0.124995246210E+04   -0.64787E-01   -0.97489E-03  2546   0.150E-01    0.779E+00
RMM:  44    -0.125003245866E+04   -0.79997E-01   -0.11974E-02  2358   0.186E-01    0.809E+00
RMM:  45    -0.125011736244E+04   -0.84904E-01   -0.20810E-02  2369   0.241E-01    0.846E+00
RMM:  46    -0.125013304193E+04   -0.15679E-01   -0.15253E-02  2541   0.206E-01    0.865E+00
RMM:  47    -0.125005873406E+04    0.74308E-01   -0.31168E-02  2158   0.307E-01    0.957E+00
RMM:  48    -0.125017558967E+04   -0.11686E+00   -0.10513E-02  2382   0.196E-01    0.952E+00
RMM:  49    -0.125027295081E+04   -0.97361E-01   -0.83324E-03  2443   0.144E-01    0.958E+00
RMM:  50    -0.125042909445E+04   -0.15614E+00   -0.10932E-02  2274   0.190E-01    0.934E+00
RMM:  51    -0.125058587294E+04   -0.15678E+00   -0.18052E-02  2372   0.254E-01    0.917E+00
RMM:  52    -0.125084689285E+04   -0.26102E+00   -0.73744E-02  2142   0.505E-01    0.821E+00
RMM:  53    -0.125104211511E+04   -0.19522E+00   -0.33118E-02  2408   0.368E-01    0.702E+00
RMM:  54    -0.125103591058E+04    0.62045E-02   -0.66255E-03  2594   0.149E-01    0.698E+00
RMM:  55    -0.125102796957E+04    0.79410E-02   -0.21301E-03  2644   0.745E-02    0.668E+00
RMM:  56    -0.125103943362E+04   -0.11464E-01   -0.21958E-03  2200   0.917E-02    0.661E+00
RMM:  57    -0.125086675169E+04    0.17268E+00   -0.35016E-02  2182   0.393E-01    0.775E+00
RMM:  58    -0.125101244574E+04   -0.14569E+00   -0.14905E-02  2200   0.301E-01    0.711E+00
RMM:  59    -0.125094183196E+04    0.70614E-01   -0.94379E-03  2208   0.206E-01    0.746E+00
RMM:  60    -0.125092637064E+04    0.15461E-01   -0.60519E-03  2395   0.153E-01    0.789E+00
RMM:  61    -0.125092235524E+04    0.40154E-02   -0.13993E-03  2397   0.761E-02    0.789E+00
RMM:  62    -0.125245114375E+04   -0.15288E+01   -0.69622E-01  2136   0.163E+00    0.246E+01
RMM:  63    -0.125228921986E+04    0.16192E+00   -0.23337E-01  2245   0.110E+00    0.200E+01
RMM:  64    -0.125223696767E+04    0.52252E-01   -0.10924E-01  2200   0.686E-01    0.132E+01
RMM:  65    -0.125229883790E+04   -0.61870E-01   -0.54209E-02  2331   0.494E-01    0.107E+01
RMM:  66    -0.125242015200E+04   -0.12131E+00   -0.42330E-02  2210   0.466E-01    0.115E+01
RMM:  67    -0.125225311428E+04    0.16704E+00   -0.79784E-02  2187   0.594E-01    0.136E+01
RMM:  68    -0.125224301308E+04    0.10101E-01   -0.33215E-02  2227   0.421E-01    0.129E+01
RMM:  69    -0.125223879922E+04    0.42139E-02   -0.10164E-02  2572   0.190E-01    0.121E+01
RMM:  70    -0.125241392627E+04   -0.17513E+00   -0.22198E-02  2158   0.285E-01    0.121E+01
RMM:  71    -0.125245086192E+04   -0.36936E-01   -0.10208E-02  2333   0.204E-01    0.115E+01
RMM:  72    -0.125242115665E+04    0.29705E-01   -0.26543E-02  2380   0.320E-01    0.113E+01
RMM:  73    -0.125233785315E+04    0.83304E-01   -0.13352E-02  2412   0.240E-01    0.103E+01
RMM:  74    -0.125223023759E+04    0.10762E+00   -0.10238E-02  2442   0.188E-01    0.957E+00
RMM:  75    -0.125221009772E+04    0.20140E-01   -0.20266E-02  2372   0.258E-01    0.102E+01
RMM:  76    -0.125217041342E+04    0.39684E-01   -0.11641E-02  2337   0.202E-01    0.100E+01
RMM:  77    -0.125167432298E+04    0.49609E+00   -0.13798E-01  2133   0.773E-01    0.901E+00
RMM:  78    -0.125177476561E+04   -0.10044E+00   -0.50173E-02  2187   0.505E-01    0.868E+00
RMM:  79    -0.125177288723E+04    0.18784E-02   -0.16813E-02  2682   0.215E-01    0.930E+00
RMM:  80    -0.125179141177E+04   -0.18525E-01   -0.28932E-03  2403   0.102E-01    0.939E+00
RMM:  81    -0.125185119655E+04   -0.59785E-01   -0.31719E-03  2170   0.117E-01    0.950E+00
RMM:  82    -0.125179372904E+04    0.57468E-01   -0.46110E-02  2177   0.417E-01    0.922E+00
RMM:  83    -0.125201685573E+04   -0.22313E+00   -0.33409E-02  2351   0.330E-01    0.899E+00
RMM:  84    -0.125211437578E+04   -0.97520E-01   -0.23546E-02  2630   0.242E-01    0.882E+00
RMM:  85    -0.125213180478E+04   -0.17429E-01   -0.47120E-03  2648   0.110E-01    0.881E+00
RMM:  86    -0.125213429352E+04   -0.24887E-02   -0.16071E-03  2588   0.576E-02    0.879E+00
RMM:  87    -0.125206133418E+04    0.72959E-01   -0.32057E-02  2159   0.334E-01    0.925E+00
RMM:  88    -0.125207741732E+04   -0.16083E-01   -0.87955E-03  2273   0.187E-01    0.929E+00
RMM:  89    -0.125210446250E+04   -0.27045E-01   -0.62417E-03  2604   0.110E-01    0.912E+00
RMM:  90    -0.125214695839E+04   -0.42496E-01   -0.68807E-03  2389   0.155E-01    0.885E+00
RMM:  91    -0.125220625096E+04   -0.59293E-01   -0.12195E-02  2396   0.202E-01    0.844E+00
RMM:  92    -0.125222963044E+04   -0.23379E-01   -0.43585E-02  2203   0.408E-01    0.816E+00
RMM:  93    -0.125228506554E+04   -0.55435E-01   -0.16846E-02  2485   0.220E-01    0.852E+00
RMM:  94    -0.125230740123E+04   -0.22336E-01   -0.84189E-03  2460   0.177E-01    0.878E+00
RMM:  95    -0.125230704613E+04    0.35510E-03   -0.47161E-03  2614   0.111E-01    0.894E+00
RMM:  96    -0.125230417346E+04    0.28727E-02   -0.11903E-03  2625   0.573E-02    0.897E+00
RMM:  97    -0.125177320324E+04    0.53097E+00   -0.34392E-01  2143   0.114E+00    0.112E+01
RMM:  98    -0.125191273437E+04   -0.13953E+00   -0.88284E-02  2196   0.683E-01    0.960E+00
RMM:  99    -0.125193365133E+04   -0.20917E-01   -0.24503E-02  2659   0.268E-01    0.101E+01
RMM: 100    -0.125195506518E+04   -0.21414E-01   -0.45109E-03  2484   0.124E-01    0.102E+01
RMM: 101    -0.125195502950E+04    0.35679E-04   -0.30381E-03  2299   0.104E-01    0.102E+01
RMM: 102    -0.125218895685E+04   -0.23393E+00   -0.43108E-02  2142   0.409E-01    0.994E+00
RMM: 103    -0.125217591796E+04    0.13039E-01   -0.13373E-02  2251   0.240E-01    0.934E+00
RMM: 104    -0.125219750399E+04   -0.21586E-01   -0.15155E-02  2322   0.230E-01    0.956E+00
RMM: 105    -0.125217871348E+04    0.18791E-01   -0.12822E-02  2456   0.225E-01    0.928E+00
RMM: 106    -0.125228939987E+04   -0.11069E+00   -0.10640E-02  2376   0.196E-01    0.989E+00
RMM: 107    -0.125213746096E+04    0.15194E+00   -0.48469E-02  2178   0.480E-01    0.956E+00
RMM: 108    -0.125228271779E+04   -0.14526E+00   -0.12983E-02  2274   0.265E-01    0.940E+00
RMM: 109    -0.125238034135E+04   -0.97624E-01   -0.12070E-02  2492   0.193E-01    0.951E+00
RMM: 110    -0.125243234004E+04   -0.51999E-01   -0.48509E-03  2568   0.115E-01    0.102E+01
RMM: 111    -0.125237135443E+04    0.60986E-01   -0.36278E-03  2159   0.134E-01    0.104E+01
RMM: 112    -0.125228581019E+04    0.85544E-01   -0.10110E-02  2164   0.229E-01    0.107E+01
RMM: 113    -0.125229719342E+04   -0.11383E-01   -0.69541E-03  2337   0.178E-01    0.109E+01
RMM: 114    -0.125224669548E+04    0.50498E-01   -0.32327E-03  2625   0.992E-02    0.104E+01
RMM: 115    -0.125225471664E+04   -0.80212E-02   -0.11821E-03  2438   0.642E-02    0.101E+01
RMM: 116    -0.125221385713E+04    0.40860E-01   -0.24748E-03  2272   0.865E-02    0.984E+00
RMM: 117    -0.125202044057E+04    0.19342E+00   -0.59510E-02  2182   0.496E-01    0.106E+01
RMM: 118    -0.125203750021E+04   -0.17060E-01   -0.14438E-02  2231   0.263E-01    0.103E+01
RMM: 119    -0.125204665855E+04   -0.91583E-02   -0.34946E-03  2705   0.945E-02    0.103E+01
RMM: 120    -0.125200441768E+04    0.42241E-01   -0.77852E-03  2230   0.179E-01
   2 F= -.12604085E+04 E0= -.12603932E+04  d E =-.691244E+01  mag=     9.6129
       N       E                     dE             d eps       ncg     rms          rms(c)
DAV:   1    -0.125372605547E+04   -0.16794E+01   -0.87154E+01  2368   0.246E+01    0.155E+01
RMM:   2    -0.126269888725E+04   -0.89728E+01   -0.14869E+01  2138   0.906E+00    0.576E+01
RMM:   3    -0.125439674655E+04    0.83021E+01   -0.63807E+00  2242   0.591E+00    0.213E+01
RMM:   4    -0.125488231085E+04   -0.48556E+00   -0.28147E+00  2375   0.341E+00    0.281E+01
RMM:   5    -0.125404955649E+04    0.83275E+00   -0.17093E+00  2400   0.252E+00    0.303E+01
RMM:   6    -0.125335243545E+04    0.69712E+00   -0.78385E-01  2324   0.173E+00    0.245E+01
RMM:   7    -0.125274519867E+04    0.60724E+00   -0.77248E-01  2290   0.169E+00    0.218E+01
RMM:   8    -0.125298317563E+04   -0.23798E+00   -0.46989E-01  2282   0.149E+00    0.249E+01
RMM:   9    -0.125272109615E+04    0.26208E+00   -0.22649E-01  2283   0.922E-01    0.182E+01
RMM:  10    -0.125266093290E+04    0.60163E-01   -0.10917E-01  2204   0.723E-01    0.194E+01
RMM:  11    -0.125260961958E+04    0.51313E-01   -0.33315E-02  2450   0.369E-01    0.177E+01
RMM:  12    -0.125263323258E+04   -0.23613E-01   -0.11852E-02  2200   0.229E-01    0.171E+01
RMM:  13    -0.125272069717E+04   -0.87465E-01   -0.71096E-02  2157   0.499E-01    0.170E+01
RMM:  14    -0.125282927654E+04   -0.10858E+00   -0.36542E-01  2153   0.116E+00    0.111E+01
RMM:  15    -0.125294723410E+04   -0.11796E+00   -0.32730E-01  2247   0.118E+00    0.712E+00
RMM:  16    -0.125308362600E+04   -0.13639E+00   -0.16469E-01  2282   0.847E-01    0.511E+00
RMM:  17    -0.125313625564E+04   -0.52630E-01   -0.88707E-02  2359   0.586E-01    0.399E+00
RMM:  18    -0.125322715955E+04   -0.90904E-01   -0.72523E-02  2321   0.490E-01    0.447E+00
RMM:  19    -0.125327485715E+04   -0.47698E-01   -0.68772E-02  2347   0.508E-01    0.396E+00
RMM:  20    -0.125337491840E+04   -0.10006E+00   -0.69555E-02  2295   0.483E-01    0.386E+00
RMM:  21    -0.125342765740E+04   -0.52739E-01   -0.54778E-02  2378   0.454E-01    0.375E+00
RMM:  22    -0.125348831378E+04   -0.60656E-01   -0.42319E-02  2324   0.365E-01    0.418E+00
RMM:  23    -0.125354212419E+04   -0.53810E-01   -0.39643E-02  2385   0.327E-01    0.527E+00
RMM:  24    -0.125351518220E+04    0.26942E-01   -0.50888E-02  2400   0.333E-01    0.657E+00
RMM:  25    -0.125344091280E+04    0.74269E-01   -0.34251E-02  2543   0.262E-01    0.716E+00
RMM:  26    -0.125341251276E+04    0.28400E-01   -0.95463E-03  2480   0.153E-01    0.719E+00
RMM:  27    -0.125333416907E+04    0.78344E-01   -0.14627E-02  2330   0.167E-01    0.941E+00
RMM:  28    -0.125331786301E+04    0.16306E-01   -0.12173E-02  2239   0.223E-01    0.102E+01
RMM:  29    -0.125330605479E+04    0.11808E-01   -0.42994E-03  2327   0.108E-01    0.108E+01
RMM:  30    -0.125329667640E+04    0.93784E-02   -0.10559E-03  2183   0.647E-02    0.109E+01
RMM:  31    -0.125329475730E+04    0.19191E-02   -0.37163E-04  2392   0.260E-02    0.109E+01
RMM:  32    -0.125332895299E+04   -0.34196E-01   -0.13908E-03  2136   0.801E-02    0.111E+01
RMM:  33    -0.125334277185E+04   -0.13819E-01   -0.11704E-03  2307   0.667E-02    0.113E+01
RMM:  34    -0.125334462147E+04   -0.18496E-02   -0.47313E-04  2273   0.422E-02    0.113E+01
RMM:  35    -0.125337416239E+04   -0.29541E-01   -0.74580E-04  2222   0.544E-02    0.114E+01
RMM:  36    -0.125342867076E+04   -0.54508E-01   -0.33104E-03  2250   0.100E-01    0.112E+01
RMM:  37    -0.125344394069E+04   -0.15270E-01   -0.16878E-03  2261   0.763E-02    0.110E+01
RMM:  38    -0.125344334107E+04    0.59962E-03   -0.52406E-04  2317   0.462E-02    0.110E+01
RMM:  39    -0.125345564479E+04   -0.12304E-01   -0.55742E-03  2160   0.126E-01    0.104E+01
RMM:  40    -0.125345284582E+04    0.27990E-02   -0.31739E-02  2288   0.282E-01    0.619E+00
RMM:  41    -0.125349892221E+04   -0.46076E-01   -0.35414E-02  2294   0.371E-01    0.608E+00
RMM:  42    -0.125348577783E+04    0.13144E-01   -0.44484E-02  2263   0.332E-01    0.494E+00
RMM:  43    -0.125348226102E+04    0.35168E-02   -0.16817E-02  2568   0.175E-01    0.463E+00
RMM:  44    -0.125348273372E+04   -0.47270E-03   -0.27513E-03  2718   0.684E-02    0.459E+00
RMM:  45    -0.125347871400E+04    0.40197E-02   -0.11284E-03  2522   0.376E-02    0.452E+00
RMM:  46    -0.125347485224E+04    0.38618E-02   -0.17003E-03  2199   0.718E-02    0.439E+00
RMM:  47    -0.125327374723E+04    0.20111E+00   -0.55795E-02  2140   0.377E-01    0.431E+00
RMM:  48    -0.125326511642E+04    0.86308E-02   -0.14455E-02  2449   0.191E-01    0.422E+00
RMM:  49    -0.125323571271E+04    0.29404E-01   -0.11437E-02  2645   0.157E-01    0.428E+00
RMM:  50    -0.125321252222E+04    0.23190E-01   -0.57279E-03  2580   0.111E-01    0.439E+00
RMM:  51    -0.125321072488E+04    0.17973E-02   -0.15380E-03  2659   0.484E-02    0.439E+00
RMM:  52    -0.125316803261E+04    0.42692E-01   -0.50855E-03  2138   0.128E-01    0.466E+00
RMM:  53    -0.125314642016E+04    0.21612E-01   -0.14034E-03  2331   0.704E-02    0.478E+00
RMM:  54    -0.125316553241E+04   -0.19112E-01   -0.40856E-03  2117   0.118E-01    0.455E+00
RMM:  55    -0.125316651421E+04   -0.98180E-03   -0.59634E-04  2307   0.387E-02    0.454E+00
RMM:  56    -0.125319081218E+04   -0.24298E-01   -0.43752E-04  2142   0.364E-02    0.444E+00
RMM:  57    -0.125316699997E+04    0.23812E-01   -0.61996E-03  2125   0.151E-01    0.461E+00
RMM:  58    -0.125321098444E+04   -0.43984E-01   -0.18558E-03  2296   0.827E-02    0.437E+00
RMM:  59    -0.125323857866E+04   -0.27594E-01   -0.14407E-03  2454   0.675E-02    0.420E+00
RMM:  60    -0.125325472094E+04   -0.16142E-01   -0.19443E-03  2402   0.802E-02    0.421E+00
RMM:  61    -0.125325276826E+04    0.19527E-02   -0.93326E-04  2388   0.561E-02    0.429E+00
RMM:  62    -0.125329863203E+04   -0.45864E-01   -0.33984E-03  2155   0.115E-01    0.435E+00
RMM:  63    -0.125332394735E+04   -0.25315E-01   -0.19160E-03  2292   0.942E-02    0.491E+00
RMM:  64    -0.125331933163E+04    0.46157E-02   -0.10604E-03  2243   0.707E-02    0.543E+00
RMM:  65    -0.125334670404E+04   -0.27372E-01   -0.12713E-03  2197   0.743E-02    0.659E+00
RMM:  66    -0.125334092111E+04    0.57829E-02   -0.15222E-03  2143   0.852E-02    0.758E+00
RMM:  67    -0.125337026137E+04   -0.29340E-01   -0.25558E-03  2188   0.110E-01    0.915E+00
RMM:  68    -0.125333725162E+04    0.33010E-01   -0.23186E-03  2149   0.117E-01    0.943E+00
RMM:  69    -0.125333450781E+04    0.27438E-02   -0.12694E-03  2228   0.789E-02    0.979E+00
RMM:  70    -0.125332907549E+04    0.54323E-02   -0.25743E-04  2315   0.311E-02    0.982E+00
RMM:  71    -0.125334803214E+04   -0.18957E-01   -0.41163E-04  2137   0.410E-02    0.102E+01
RMM:  72    -0.125320466968E+04    0.14336E+00   -0.21289E-02  2129   0.270E-01    0.851E+00
RMM:  73    -0.125322145766E+04   -0.16788E-01   -0.53982E-03  2203   0.158E-01    0.691E+00
RMM:  74    -0.125322418519E+04   -0.27275E-02   -0.58672E-03  2173   0.151E-01    0.787E+00
RMM:  75    -0.125322991177E+04   -0.57266E-02   -0.17164E-03  2268   0.753E-02    0.826E+00
RMM:  76    -0.125324478797E+04   -0.14876E-01   -0.24224E-03  2182   0.105E-01    0.745E+00
RMM:  77    -0.125363170119E+04   -0.38691E+00   -0.90029E-02  2118   0.543E-01    0.116E+01
RMM:  78    -0.125362216236E+04    0.95388E-02   -0.18349E-02  2151   0.301E-01    0.117E+01
RMM:  79    -0.125365638509E+04   -0.34223E-01   -0.69686E-03  2648   0.137E-01    0.120E+01
RMM:  80    -0.125366752591E+04   -0.11141E-01   -0.29296E-03  2344   0.937E-02    0.125E+01
RMM:  81    -0.125366715632E+04    0.36959E-03   -0.12994E-03  2363   0.734E-02    0.125E+01
RMM:  82    -0.125370114907E+04   -0.33993E-01   -0.12903E-02  2194   0.221E-01    0.151E+01
RMM:  83    -0.125370073641E+04    0.41267E-03   -0.47144E-03  2350   0.143E-01    0.159E+01
RMM:  84    -0.125368592682E+04    0.14810E-01   -0.34265E-03  2168   0.128E-01    0.171E+01
RMM:  85    -0.125367837368E+04    0.75531E-02   -0.22679E-03  2193   0.103E-01    0.182E+01
RMM:  86    -0.125364732346E+04    0.31050E-01   -0.19168E-03  2140   0.970E-02    0.186E+01
RMM:  87    -0.125367308933E+04   -0.25766E-01   -0.79879E-03  2194   0.183E-01    0.197E+01
RMM:  88    -0.125366559936E+04    0.74900E-02   -0.21981E-03  2238   0.983E-02    0.205E+01
RMM:  89    -0.125368275303E+04   -0.17154E-01   -0.11574E-03  2385   0.615E-02    0.214E+01
RMM:  90    -0.125352827369E+04    0.15448E+00   -0.57066E-03  2202   0.149E-01    0.171E+01
RMM:  91    -0.125353459382E+04   -0.63201E-02   -0.77278E-03  2204   0.193E-01    0.149E+01
RMM:  92    -0.125360484345E+04   -0.70250E-01   -0.10906E-02  2169   0.217E-01    0.125E+01
RMM:  93    -0.125365555776E+04   -0.50714E-01   -0.94995E-03  2280   0.227E-01    0.125E+01
RMM:  94    -0.125366483834E+04   -0.92806E-02   -0.23860E-03  2578   0.875E-02    0.125E+01
RMM:  95    -0.125366684426E+04   -0.20059E-02   -0.45124E-04  2374   0.358E-02    0.125E+01
RMM:  96    -0.125367444096E+04   -0.75967E-02   -0.27445E-03  2126   0.104E-01    0.125E+01
RMM:  97    -0.125367997085E+04   -0.55299E-02   -0.32457E-02  2155   0.363E-01    0.124E+01
RMM:  98    -0.125369596537E+04   -0.15995E-01   -0.59211E-03  2284   0.151E-01    0.124E+01
RMM:  99    -0.125370557891E+04   -0.96135E-02   -0.20571E-03  2727   0.610E-02    0.124E+01
RMM: 100    -0.125369483473E+04    0.10744E-01   -0.13145E-03  2159   0.727E-02    0.124E+01
RMM: 101    -0.125369146242E+04    0.33723E-02   -0.17528E-03  2392   0.680E-02    0.124E+01
RMM: 102    -0.125364594547E+04    0.45517E-01   -0.62000E-03  2129   0.151E-01    0.121E+01
RMM: 103    -0.125364566658E+04    0.27889E-03   -0.12463E-03  2236   0.704E-02    0.119E+01
RMM: 104    -0.125365210810E+04   -0.64415E-02   -0.52324E-04  2411   0.375E-02    0.119E+01
RMM: 105    -0.125365046260E+04    0.16455E-02   -0.39081E-04  2203   0.376E-02    0.119E+01
RMM: 106    -0.125365565279E+04   -0.51902E-02   -0.17647E-04  2171   0.248E-02    0.119E+01
RMM: 107    -0.125355483389E+04    0.10082E+00   -0.34707E-02  2183   0.353E-01    0.616E+00
RMM: 108    -0.125362785982E+04   -0.73026E-01   -0.49893E-02  2126   0.492E-01    0.753E+00
RMM: 109    -0.125363326635E+04   -0.54065E-02   -0.17281E-02  2170   0.291E-01    0.532E+00
RMM: 110    -0.125370729327E+04   -0.74027E-01   -0.20240E-02  2359   0.249E-01    0.104E+01
RMM: 111    -0.125370786792E+04   -0.57465E-03   -0.10061E-02  2247   0.216E-01    0.116E+01
RMM: 112    -0.125366038347E+04    0.47484E-01   -0.15738E-02  2232   0.242E-01    0.114E+01
RMM: 113    -0.125364843791E+04    0.11946E-01   -0.45565E-03  2297   0.155E-01    0.104E+01
RMM: 114    -0.125364127549E+04    0.71624E-02   -0.13915E-03  2512   0.719E-02    0.899E+00
RMM: 115    -0.125364353303E+04   -0.22575E-02   -0.20266E-03  2218   0.960E-02    0.637E+00
RMM: 116    -0.125369735320E+04   -0.53820E-01   -0.14554E-02  2119   0.242E-01    0.680E+00
RMM: 117    -0.125371332570E+04   -0.15973E-01   -0.18554E-02  2301   0.243E-01    0.573E+00
RMM: 118    -0.125373055568E+04   -0.17230E-01   -0.71562E-03  2448   0.159E-01    0.563E+00
RMM: 119    -0.125372974443E+04    0.81125E-03   -0.30818E-03  2542   0.862E-02    0.453E+00
RMM: 120    -0.125373809563E+04   -0.83512E-02   -0.42084E-03  2204   0.113E-01
   3 F= -.12622425E+04 E0= -.12622250E+04  d E =-.874639E+01  mag=     9.6474
       N       E                     dE             d eps       ncg     rms          rms(c)
DAV:   1    -0.125386711745E+04   -0.13737E+00   -0.46288E+00  2432   0.573E+00    0.514E+00
RMM:   2    -0.125995634396E+04   -0.60892E+01   -0.40445E+00  2197   0.375E+00    0.379E+01
RMM:   3    -0.125383268775E+04    0.61237E+01   -0.11609E+00  2193   0.235E+00    0.696E+00
RMM:   4    -0.125390072458E+04   -0.68037E-01   -0.36597E-01  2344   0.114E+00    0.100E+01
RMM:   5    -0.125384666737E+04    0.54057E-01   -0.15124E-01  2403   0.672E-01    0.727E+00
RMM:   6    -0.125381206908E+04    0.34598E-01   -0.65222E-02  2312   0.529E-01    0.364E+00
RMM:   7    -0.125383850309E+04   -0.26434E-01   -0.11270E-01  2287   0.637E-01    0.710E+00
RMM:   8    -0.125374281275E+04    0.95690E-01   -0.42934E-02  2368   0.424E-01    0.230E+00
RMM:   9    -0.125373128260E+04    0.11530E-01   -0.48018E-02  2314   0.424E-01    0.270E+00
RMM:  10    -0.125370921553E+04    0.22067E-01   -0.31825E-02  2383   0.343E-01    0.221E+00
RMM:  11    -0.125369046012E+04    0.18755E-01   -0.21703E-02  2373   0.283E-01    0.167E+00
RMM:  12    -0.125369291068E+04   -0.24506E-02   -0.11722E-02  2265   0.234E-01    0.974E-01
RMM:  13    -0.125370654280E+04   -0.13632E-01   -0.71428E-03  2349   0.162E-01    0.841E-01
RMM:  14    -0.125372300289E+04   -0.16460E-01   -0.47804E-03  2366   0.130E-01    0.888E-01
RMM:  15    -0.125372557025E+04   -0.25674E-02   -0.21479E-03  2310   0.994E-02    0.652E-01
RMM:  16    -0.125372890453E+04   -0.33343E-02   -0.10068E-03  2344   0.606E-02    0.580E-01
RMM:  17    -0.125373544608E+04   -0.65415E-02   -0.48404E-04  2213   0.421E-02    0.492E-01
RMM:  18    -0.125375089893E+04   -0.15453E-01   -0.12378E-03  2158   0.667E-02    0.529E-01
RMM:  19    -0.125376860636E+04   -0.17707E-01   -0.19085E-03  2239   0.807E-02    0.487E-01
RMM:  20    -0.125378270102E+04   -0.14095E-01   -0.13135E-03  2390   0.615E-02    0.407E-01
RMM:  21    -0.125378856010E+04   -0.58591E-02   -0.66610E-04  2324   0.472E-02    0.363E-01
RMM:  22    -0.125379758465E+04   -0.90246E-02   -0.51059E-04  2271   0.383E-02    0.282E-01
RMM:  23    -0.125380499534E+04   -0.74107E-02   -0.34707E-04  2351   0.303E-02    0.273E-01
RMM:  24    -0.125381749861E+04   -0.12503E-01   -0.40372E-04  2289   0.294E-02    0.195E-01
RMM:  25    -0.125383216584E+04   -0.14667E-01   -0.48448E-04  2389   0.269E-02    0.163E-01
RMM:  26    -0.125384215442E+04   -0.99886E-02   -0.32949E-04  2503   0.212E-02    0.159E-01
RMM:  27    -0.125384670956E+04   -0.45551E-02   -0.11539E-04  2323   0.142E-02    0.137E-01
RMM:  28    -0.125385153350E+04   -0.48239E-02   -0.11134E-04  2300   0.122E-02    0.115E-01
RMM:  29    -0.125386055900E+04   -0.90255E-02   -0.29203E-04  2361   0.179E-02    0.818E-02
RMM:  30    -0.125386836176E+04   -0.78028E-02   -0.37395E-04  2519   0.189E-02    0.611E-02
RMM:  31    -0.125387294634E+04   -0.45846E-02   -0.25949E-04  2549   0.157E-02    0.420E-02
RMM:  32    -0.125387514716E+04   -0.22008E-02   -0.12374E-04  2388   0.109E-02    0.319E-02
RMM:  33    -0.125387634566E+04   -0.11985E-02   -0.65088E-05  2273   0.802E-03    0.305E-02
RMM:  34    -0.125387698319E+04   -0.63753E-03   -0.35255E-05  2135   0.617E-03    0.251E-02
RMM:  35    -0.125387727680E+04   -0.29361E-03   -0.15165E-05  1908   0.472E-03    0.211E-02
RMM:  36    -0.125387746959E+04   -0.19279E-03   -0.92632E-06  1741   0.366E-03    0.176E-02
RMM:  37    -0.125387761398E+04   -0.14439E-03   -0.64560E-06  1618   0.305E-03    0.140E-02
RMM:  38    -0.125387772613E+04   -0.11215E-03   -0.50643E-06  1540   0.262E-03    0.938E-03
RMM:  39    -0.125387778558E+04   -0.59448E-04   -0.27771E-06  1423   0.208E-03    0.749E-03
RMM:  40    -0.125387782323E+04   -0.37652E-04   -0.18095E-06  1332   0.168E-03    0.632E-03
RMM:  41    -0.125387785438E+04   -0.31148E-04   -0.14721E-06  1278   0.151E-03    0.493E-03
RMM:  42    -0.125387787577E+04   -0.21392E-04   -0.12777E-06  1248   0.135E-03    0.375E-03
RMM:  43    -0.125387788760E+04   -0.11826E-04   -0.86148E-07  1179   0.121E-03    0.297E-03
RMM:  44    -0.125387789656E+04   -0.89624E-05   -0.76449E-07  1156   0.109E-03    0.226E-03
RMM:  45    -0.125387790237E+04   -0.58138E-05   -0.58108E-07  1140   0.100E-03    0.155E-03
RMM:  46    -0.125387790608E+04   -0.37064E-05   -0.48137E-07  1114   0.899E-04    0.102E-03
RMM:  47    -0.125387790917E+04   -0.30909E-05   -0.48754E-07  1176   0.881E-04    0.486E-04
RMM:  48    -0.125387791000E+04   -0.82607E-06   -0.30486E-07  1000   0.766E-04
   4 F= -.12624056E+04 E0= -.12623987E+04  d E =-.890951E+01  mag=    10.2103
       N       E                     dE             d eps       ncg     rms          rms(c)
DAV:   1    -0.125398266375E+04   -0.10475E+00   -0.72650E+00  2384   0.716E+00    0.283E+00
RMM:   2    -0.125393047088E+04    0.52193E-01   -0.46338E-01  2128   0.176E+00    0.317E+00
RMM:   3    -0.125393355824E+04   -0.30874E-02   -0.12274E-01  2426   0.811E-01    0.336E+00
RMM:   4    -0.125392408326E+04    0.94750E-02   -0.73293E-02  2502   0.549E-01    0.395E+00
RMM:   5    -0.125390799922E+04    0.16084E-01   -0.43501E-02  2333   0.406E-01    0.239E+00
RMM:   6    -0.125390011278E+04    0.78864E-02   -0.19202E-02  2335   0.318E-01    0.899E-01
RMM:   7    -0.125390169413E+04   -0.15813E-02   -0.78443E-03  2456   0.177E-01    0.956E-01
RMM:   8    -0.125390018036E+04    0.15138E-02   -0.48135E-03  2527   0.139E-01    0.601E-01
RMM:   9    -0.125390039299E+04   -0.21264E-03   -0.29554E-03  2393   0.112E-01    0.555E-01
RMM:  10    -0.125389971535E+04    0.67765E-03   -0.15745E-03  2424   0.854E-02    0.435E-01
RMM:  11    -0.125389956929E+04    0.14606E-03   -0.57994E-04  2469   0.516E-02    0.259E-01
RMM:  12    -0.125389958074E+04   -0.11449E-04   -0.34279E-04  2403   0.358E-02    0.177E-01
RMM:  13    -0.125389961513E+04   -0.34390E-04   -0.13075E-04  2374   0.228E-02    0.756E-02
RMM:  14    -0.125389969910E+04   -0.83970E-04   -0.70230E-05  2075   0.166E-02    0.815E-02
RMM:  15    -0.125389973089E+04   -0.31789E-04   -0.29598E-05  1901   0.112E-02    0.491E-02
RMM:  16    -0.125389976926E+04   -0.38367E-04   -0.98077E-06  1638   0.628E-03    0.297E-02
RMM:  17    -0.125389980497E+04   -0.35713E-04   -0.89007E-06  1582   0.638E-03    0.340E-02
RMM:  18    -0.125389984415E+04   -0.39180E-04   -0.58523E-06  1517   0.523E-03    0.179E-02
RMM:  19    -0.125389989738E+04   -0.53229E-04   -0.44641E-06  1500   0.427E-03    0.254E-02
RMM:  20    -0.125389992504E+04   -0.27665E-04   -0.21721E-06  1375   0.330E-03    0.193E-02
RMM:  21    -0.125389993589E+04   -0.10847E-04   -0.10475E-06  1291   0.219E-03    0.153E-02
RMM:  22    -0.125389994342E+04   -0.75262E-05   -0.51244E-07  1251   0.155E-03    0.122E-02
RMM:  23    -0.125389995353E+04   -0.10117E-04   -0.34021E-07  1220   0.112E-03    0.114E-02
RMM:  24    -0.125389997810E+04   -0.24569E-04   -0.63858E-07  1241   0.149E-03    0.128E-02
RMM:  25    -0.125390004913E+04   -0.71031E-04   -0.24415E-06  1395   0.228E-03    0.116E-02
RMM:  26    -0.125390009672E+04   -0.47586E-04   -0.16917E-06  1344   0.210E-03    0.662E-03
RMM:  27    -0.125390011799E+04   -0.21267E-04   -0.11175E-06  1299   0.167E-03    0.598E-03
RMM:  28    -0.125390013776E+04   -0.19777E-04   -0.88919E-07  1236   0.148E-03    0.406E-03
RMM:  29    -0.125390017079E+04   -0.33028E-04   -0.11416E-06  1244   0.134E-03    0.319E-03
RMM:  30    -0.125390020115E+04   -0.30359E-04   -0.11405E-06  1196   0.134E-03    0.298E-03
RMM:  31    -0.125390022555E+04   -0.24395E-04   -0.10894E-06  1204   0.123E-03    0.181E-03
RMM:  32    -0.125390025510E+04   -0.29558E-04   -0.15008E-06  1275   0.131E-03    0.146E-03
RMM:  33    -0.125390028596E+04   -0.30855E-04   -0.19875E-06  1349   0.139E-03    0.144E-03
RMM:  34    -0.125390030114E+04   -0.15181E-04   -0.12786E-06  1171   0.137E-03    0.107E-03
RMM:  35    -0.125390031274E+04   -0.11599E-04   -0.10952E-06  1188   0.117E-03    0.850E-04
RMM:  36    -0.125390032122E+04   -0.84834E-05   -0.84212E-07  1130   0.113E-03    0.739E-04
RMM:  37    -0.125390032653E+04   -0.53134E-05   -0.70446E-07  1115   0.990E-04    0.595E-04
RMM:  38    -0.125390032887E+04   -0.23375E-05   -0.47642E-07  1038   0.913E-04    0.533E-04
RMM:  39    -0.125390033002E+04   -0.11524E-05   -0.32472E-07   946   0.722E-04    0.348E-04
RMM:  40    -0.125390033082E+04   -0.79398E-06   -0.21508E-07   907   0.640E-04
   5 F= -.12624569E+04 E0= -.12624505E+04  d E =-.896082E+01  mag=    10.1916
       N       E                     dE             d eps       ncg     rms          rms(c)
DAV:   1    -0.125390011240E+04    0.21762E-03   -0.30073E-01  2384   0.146E+00    0.576E-01
RMM:   2    -0.125389783193E+04    0.22805E-02   -0.19139E-02  2131   0.358E-01    0.642E-01
RMM:   3    -0.125389813630E+04   -0.30437E-03   -0.49600E-03  2423   0.165E-01    0.834E-01
RMM:   4    -0.125389732555E+04    0.81075E-03   -0.28388E-03  2512   0.107E-01    0.763E-01
RMM:   5    -0.125389700703E+04    0.31852E-03   -0.18934E-03  2293   0.916E-02    0.458E-01
RMM:   6    -0.125389666576E+04    0.34128E-03   -0.77347E-04  2333   0.632E-02    0.162E-01
RMM:   7    -0.125389678420E+04   -0.11844E-03   -0.36084E-04  2411   0.368E-02    0.198E-01
RMM:   8    -0.125389669633E+04    0.87864E-04   -0.21007E-04  2508   0.293E-02    0.114E-01
RMM:   9    -0.125389670673E+04   -0.10398E-04   -0.10733E-04  2258   0.218E-02    0.100E-01
RMM:  10    -0.125389668226E+04    0.24468E-04   -0.54528E-05  2165   0.164E-02    0.420E-02
RMM:  11    -0.125389668881E+04   -0.65438E-05   -0.19681E-05  1971   0.885E-03    0.380E-02
RMM:  12    -0.125389668763E+04    0.11765E-05   -0.81331E-06  1570   0.611E-03    0.185E-02
RMM:  13    -0.125389669237E+04   -0.47422E-05   -0.29870E-06  1394   0.418E-03    0.124E-02
RMM:  14    -0.125389669561E+04   -0.32340E-05   -0.18598E-06  1325   0.331E-03    0.110E-02
RMM:  15    -0.125389669948E+04   -0.38744E-05   -0.97202E-07  1271   0.248E-03    0.738E-03
RMM:  16    -0.125389670154E+04   -0.20623E-05   -0.62204E-07  1237   0.185E-03    0.750E-03
RMM:  17    -0.125389670350E+04   -0.19564E-05   -0.35660E-07  1214   0.149E-03    0.381E-03
RMM:  18    -0.125389670656E+04   -0.30610E-05   -0.20518E-07  1214   0.993E-04    0.334E-03
RMM:  19    -0.125389670983E+04   -0.32714E-05   -0.19659E-07  1215   0.988E-04    0.442E-03
RMM:  20    -0.125389671289E+04   -0.30620E-05   -0.16158E-07  1183   0.840E-04    0.318E-03
RMM:  21    -0.125389671565E+04   -0.27567E-05   -0.11477E-07  1036   0.654E-04    0.155E-03
RMM:  22    -0.125389671841E+04   -0.27622E-05   -0.94048E-08   952   0.535E-04    0.146E-03
RMM:  23    -0.125389672067E+04   -0.22619E-05   -0.81472E-08   908   0.501E-04    0.114E-03
RMM:  24    -0.125389672229E+04   -0.16179E-05   -0.66261E-08   838   0.458E-04    0.994E-04
RMM:  25    -0.125389672399E+04   -0.16985E-05   -0.57965E-08   799   0.410E-04    0.861E-04
RMM:  26    -0.125389672622E+04   -0.22245E-05   -0.72005E-08   920   0.425E-04    0.740E-04
RMM:  27    -0.125389672825E+04   -0.20388E-05   -0.72632E-08   894   0.449E-04    0.710E-04
RMM:  28    -0.125389673034E+04   -0.20904E-05   -0.81182E-08   886   0.421E-04    0.507E-04
RMM:  29    -0.125389673134E+04   -0.10003E-05   -0.59557E-08   806   0.406E-04    0.466E-04
RMM:  30    -0.125389673203E+04   -0.68666E-06   -0.41483E-08   661   0.350E-04
   6 F= -.12624591E+04 E0= -.12624528E+04  d E =-.896296E+01  mag=    10.1882
       N       E                     dE             d eps       ncg     rms          rms(c)
DAV:   1    -0.125378342390E+04    0.11331E+00   -0.59294E+01  2104   0.124E+01    0.321E+00
RMM:   2    -0.125393994517E+04   -0.15652E+00   -0.11856E+00  2271   0.224E+00    0.241E+00
RMM:   3    -0.125401212130E+04   -0.72176E-01   -0.27754E-01  2618   0.934E-01    0.332E+00
RMM:   4    -0.125398843492E+04    0.23686E-01   -0.78603E-02  2544   0.509E-01    0.207E+00
RMM:   5    -0.125398697282E+04    0.14621E-02   -0.28369E-02  2507   0.309E-01    0.213E+00
RMM:   6    -0.125398161711E+04    0.53557E-02   -0.17471E-02  2388   0.257E-01    0.134E+00
RMM:   7    -0.125398566656E+04   -0.40494E-02   -0.13261E-02  2443   0.232E-01    0.113E+00
RMM:   8    -0.125398294990E+04    0.27167E-02   -0.78911E-03  2395   0.186E-01    0.645E-01
RMM:   9    -0.125398363432E+04   -0.68442E-03   -0.31417E-03  2385   0.118E-01    0.537E-01
RMM:  10    -0.125398358078E+04    0.53546E-04   -0.21013E-03  2330   0.987E-02    0.414E-01
RMM:  11    -0.125398359872E+04   -0.17947E-04   -0.11076E-03  2344   0.693E-02    0.355E-01
RMM:  12    -0.125398347720E+04    0.12153E-03   -0.54421E-04  2284   0.501E-02    0.139E-01
RMM:  13    -0.125398377625E+04   -0.29906E-03   -0.18524E-04  2262   0.281E-02    0.136E-01
RMM:  14    -0.125398384183E+04   -0.65579E-04   -0.10207E-04  2115   0.206E-02    0.901E-02
RMM:  15    -0.125398393730E+04   -0.95465E-04   -0.46687E-05  1919   0.142E-02    0.681E-02
RMM:  16    -0.125398404243E+04   -0.10513E-03   -0.28282E-05  1882   0.107E-02    0.490E-02
RMM:  17    -0.125398422125E+04   -0.17882E-03   -0.26850E-05  1925   0.959E-03    0.643E-02
RMM:  18    -0.125398432589E+04   -0.10464E-03   -0.20355E-05  1742   0.864E-03    0.334E-02
RMM:  19    -0.125398446324E+04   -0.13736E-03   -0.72121E-06  1642   0.551E-03    0.241E-02
RMM:  20    -0.125398452092E+04   -0.57679E-04   -0.33866E-06  1451   0.389E-03    0.233E-02
RMM:  21    -0.125398454431E+04   -0.23390E-04   -0.17383E-06  1346   0.296E-03    0.194E-02
RMM:  22    -0.125398455950E+04   -0.15187E-04   -0.92486E-07  1281   0.207E-03    0.176E-02
RMM:  23    -0.125398458944E+04   -0.29934E-04   -0.11142E-06  1288   0.215E-03    0.169E-02
RMM:  24    -0.125398470309E+04   -0.11366E-03   -0.27938E-06  1434   0.311E-03    0.169E-02
RMM:  25    -0.125398483457E+04   -0.13148E-03   -0.30385E-06  1468   0.283E-03    0.111E-02
RMM:  26    -0.125398489722E+04   -0.62648E-04   -0.17039E-06  1329   0.247E-03    0.976E-03
RMM:  27    -0.125398496105E+04   -0.63828E-04   -0.15049E-06  1309   0.216E-03    0.722E-03
RMM:  28    -0.125398503205E+04   -0.71003E-04   -0.15756E-06  1306   0.176E-03    0.442E-03
RMM:  29    -0.125398509838E+04   -0.66330E-04   -0.14185E-06  1270   0.166E-03    0.423E-03
RMM:  30    -0.125398516228E+04   -0.63897E-04   -0.16428E-06  1277   0.155E-03    0.289E-03
RMM:  31    -0.125398522163E+04   -0.59352E-04   -0.17784E-06  1288   0.152E-03    0.311E-03
RMM:  32    -0.125398527554E+04   -0.53912E-04   -0.19344E-06  1318   0.155E-03    0.191E-03
RMM:  33    -0.125398531545E+04   -0.39909E-04   -0.18182E-06  1294   0.149E-03    0.200E-03
RMM:  34    -0.125398533315E+04   -0.17700E-04   -0.10923E-06  1166   0.134E-03    0.146E-03
RMM:  35    -0.125398535055E+04   -0.17394E-04   -0.97463E-07  1131   0.115E-03    0.968E-04
RMM:  36    -0.125398536499E+04   -0.14439E-04   -0.93195E-07  1168   0.116E-03    0.678E-04
RMM:  37    -0.125398537090E+04   -0.59081E-05   -0.66379E-07  1072   0.103E-03    0.604E-04
RMM:  38    -0.125398537389E+04   -0.29984E-05   -0.47854E-07  1035   0.893E-04    0.427E-04
RMM:  39    -0.125398537673E+04   -0.28357E-05   -0.39725E-07  1004   0.783E-04    0.317E-04
RMM:  40    -0.125398537829E+04   -0.15619E-05   -0.30893E-07   999   0.739E-04    0.228E-04
RMM:  41    -0.125398537882E+04   -0.52853E-06   -0.21610E-07   915   0.620E-04
   7 F= -.12625463E+04 E0= -.12625402E+04  d E =-.872515E-01  mag=    10.1810
       N       E                     dE             d eps       ncg     rms          rms(c)
DAV:   1    -0.125398537880E+04   -0.50627E-06   -0.26549E-06  1698   0.260E-03    0.635E-04
RMM:   2    -0.125398537887E+04   -0.71734E-07   -0.14743E-07  1155   0.102E-03    0.454E-04
RMM:   3    -0.125398537893E+04   -0.57516E-07   -0.52015E-08   991   0.501E-04    0.847E-04
RMM:   4    -0.125398537894E+04   -0.14799E-07   -0.21465E-08   729   0.358E-04    0.530E-04
RMM:   5    -0.125398537897E+04   -0.23741E-07   -0.79091E-09   505   0.303E-04
   8 F= -.12625463E+04 E0= -.12625402E+04  d E =-.872518E-01  mag=    10.1810
       N       E                     dE             d eps       ncg     rms          rms(c)
DAV:   1    -0.125400591808E+04   -0.20539E-01   -0.12027E+01  2104   0.521E+00    0.144E+00
RMM:   2    -0.125402897325E+04   -0.23055E-01   -0.17742E-01  2361   0.862E-01    0.105E+00
RMM:   3    -0.125404433021E+04   -0.15357E-01   -0.45865E-02  2562   0.395E-01    0.151E+00
RMM:   4    -0.125403737719E+04    0.69530E-02   -0.13901E-02  2544   0.221E-01    0.766E-01
RMM:   5    -0.125403795917E+04   -0.58198E-03   -0.58869E-03  2363   0.145E-01    0.603E-01
RMM:   6    -0.125403890236E+04   -0.94319E-03   -0.33017E-03  2421   0.116E-01    0.972E-01
RMM:   7    -0.125403762410E+04    0.12783E-02   -0.22230E-03  2419   0.892E-02    0.472E-01
RMM:   8    -0.125403796974E+04   -0.34564E-03   -0.12738E-03  2308   0.789E-02    0.226E-01
RMM:   9    -0.125403808397E+04   -0.11423E-03   -0.57034E-04  2348   0.503E-02    0.206E-01
RMM:  10    -0.125403810970E+04   -0.25731E-04   -0.26748E-04  2320   0.326E-02    0.145E-01
RMM:  11    -0.125403818515E+04   -0.75452E-04   -0.15633E-04  2182   0.248E-02    0.110E-01
RMM:  12    -0.125403827455E+04   -0.89396E-04   -0.64225E-05  2029   0.170E-02    0.563E-02
RMM:  13    -0.125403834835E+04   -0.73800E-04   -0.21179E-05  1759   0.952E-03    0.428E-02
RMM:  14    -0.125403838526E+04   -0.36913E-04   -0.11752E-05  1627   0.719E-03    0.354E-02
RMM:  15    -0.125403842851E+04   -0.43247E-04   -0.76644E-06  1555   0.584E-03    0.304E-02
RMM:  16    -0.125403848335E+04   -0.54845E-04   -0.65595E-06  1553   0.559E-03    0.234E-02
RMM:  17    -0.125403854930E+04   -0.65946E-04   -0.42478E-06  1471   0.431E-03    0.178E-02
RMM:  18    -0.125403858938E+04   -0.40076E-04   -0.27445E-06  1429   0.361E-03    0.149E-02
RMM:  19    -0.125403864038E+04   -0.51000E-04   -0.19030E-06  1362   0.281E-03    0.973E-03
RMM:  20    -0.125403868308E+04   -0.42706E-04   -0.15197E-06  1327   0.252E-03    0.789E-03
RMM:  21    -0.125403872971E+04   -0.46626E-04   -0.11674E-06  1264   0.200E-03    0.620E-03
RMM:  22    -0.125403874630E+04   -0.16594E-04   -0.64166E-07  1177   0.154E-03    0.562E-03
RMM:  23    -0.125403875231E+04   -0.60041E-05   -0.37997E-07  1101   0.114E-03    0.529E-03
RMM:  24    -0.125403875816E+04   -0.58490E-05   -0.24591E-07  1029   0.920E-04    0.442E-03
RMM:  25    -0.125403877093E+04   -0.12772E-04   -0.23170E-07  1050   0.831E-04    0.368E-03
RMM:  26    -0.125403880171E+04   -0.30779E-04   -0.41098E-07  1149   0.100E-03    0.345E-03
RMM:  27    -0.125403884416E+04   -0.42457E-04   -0.67528E-07  1194   0.110E-03    0.237E-03
RMM:  28    -0.125403886916E+04   -0.24994E-04   -0.54860E-07  1106   0.103E-03    0.172E-03
RMM:  29    -0.125403888526E+04   -0.16104E-04   -0.46375E-07  1072   0.855E-04    0.122E-03
RMM:  30    -0.125403890701E+04   -0.21749E-04   -0.54087E-07  1132   0.892E-04    0.106E-03
RMM:  31    -0.125403892525E+04   -0.18237E-04   -0.56531E-07  1104   0.911E-04    0.940E-04
RMM:  32    -0.125403893910E+04   -0.13853E-04   -0.53837E-07  1066   0.881E-04    0.737E-04
RMM:  33    -0.125403895620E+04   -0.17101E-04   -0.72123E-07  1170   0.933E-04    0.672E-04
RMM:  34    -0.125403896475E+04   -0.85458E-05   -0.56792E-07  1098   0.947E-04    0.426E-04
RMM:  35    -0.125403896847E+04   -0.37180E-05   -0.40338E-07   980   0.773E-04    0.406E-04
RMM:  36    -0.125403897137E+04   -0.29028E-05   -0.29418E-07   953   0.713E-04    0.346E-04
RMM:  37    -0.125403897451E+04   -0.31375E-05   -0.27193E-07  1011   0.639E-04    0.312E-04
RMM:  38    -0.125403897608E+04   -0.15772E-05   -0.20481E-07   974   0.627E-04    0.156E-04
RMM:  39    -0.125403897685E+04   -0.76571E-06   -0.14893E-07   860   0.512E-04
   9 F= -.12626045E+04 E0= -.12625981E+04  d E =-.582226E-01  mag=    10.1895
       N       E                     dE             d eps       ncg     rms          rms(c)
DAV:   1    -0.125393777765E+04    0.10120E+00   -0.44078E+01  2104   0.100E+01    0.274E+00
RMM:   2    -0.125403898419E+04   -0.10121E+00   -0.78007E-01  2317   0.175E+00    0.210E+00
RMM:   3    -0.125409564185E+04   -0.56658E-01   -0.19724E-01  2597   0.796E-01    0.330E+00
RMM:   4    -0.125406892720E+04    0.26715E-01   -0.55687E-02  2506   0.438E-01    0.181E+00
RMM:   5    -0.125407126901E+04   -0.23418E-02   -0.25410E-02  2403   0.303E-01    0.199E+00
RMM:   6    -0.125407005627E+04    0.12127E-02   -0.14620E-02  2466   0.220E-01    0.164E+00
RMM:   7    -0.125406769851E+04    0.23578E-02   -0.11189E-02  2364   0.223E-01    0.647E-01
RMM:   8    -0.125406874540E+04   -0.10469E-02   -0.43838E-03  2358   0.143E-01    0.535E-01
RMM:   9    -0.125406921159E+04   -0.46619E-03   -0.24750E-03  2367   0.103E-01    0.507E-01
RMM:  10    -0.125406928567E+04   -0.74082E-04   -0.15146E-03  2373   0.757E-02    0.391E-01
RMM:  11    -0.125406926631E+04    0.19361E-04   -0.63628E-04  2289   0.528E-02    0.225E-01
RMM:  12    -0.125406950929E+04   -0.24298E-03   -0.24880E-04  2282   0.339E-02    0.121E-01
RMM:  13    -0.125406972021E+04   -0.21092E-03   -0.13872E-04  2205   0.240E-02    0.138E-01
RMM:  14    -0.125406980731E+04   -0.87101E-04   -0.69315E-05  2007   0.170E-02    0.728E-02
RMM:  15    -0.125406993355E+04   -0.12624E-03   -0.32754E-05  1907   0.117E-02    0.546E-02
RMM:  16    -0.125407009712E+04   -0.16357E-03   -0.21097E-05  1801   0.929E-03    0.480E-02
RMM:  17    -0.125407024230E+04   -0.14518E-03   -0.16146E-05  1707   0.805E-03    0.461E-02
RMM:  18    -0.125407034977E+04   -0.10747E-03   -0.12023E-05  1643   0.688E-03    0.329E-02
RMM:  19    -0.125407048371E+04   -0.13394E-03   -0.84994E-06  1620   0.571E-03    0.335E-02
RMM:  20    -0.125407059939E+04   -0.11568E-03   -0.72568E-06  1595   0.531E-03    0.292E-02
RMM:  21    -0.125407072282E+04   -0.12342E-03   -0.45976E-06  1517   0.404E-03    0.150E-02
RMM:  22    -0.125407076595E+04   -0.43134E-04   -0.17533E-06  1339   0.268E-03    0.142E-02
RMM:  23    -0.125407077971E+04   -0.13758E-04   -0.10790E-06  1274   0.216E-03    0.136E-02
RMM:  24    -0.125407080019E+04   -0.20485E-04   -0.71227E-07  1207   0.171E-03    0.124E-02
RMM:  25    -0.125407085652E+04   -0.56326E-04   -0.12700E-06  1268   0.207E-03    0.116E-02
RMM:  26    -0.125407095734E+04   -0.10083E-03   -0.22150E-06  1392   0.254E-03    0.562E-03
RMM:  27    -0.125407105514E+04   -0.97799E-04   -0.21730E-06  1372   0.201E-03    0.668E-03
RMM:  28    -0.125407110677E+04   -0.51628E-04   -0.11838E-06  1204   0.174E-03    0.398E-03
RMM:  29    -0.125407114619E+04   -0.39418E-04   -0.10679E-06  1202   0.139E-03    0.304E-03
RMM:  30    -0.125407118966E+04   -0.43472E-04   -0.10512E-06  1186   0.135E-03    0.183E-03
RMM:  31    -0.125407122776E+04   -0.38102E-04   -0.10810E-06  1161   0.128E-03    0.287E-03
RMM:  32    -0.125407126201E+04   -0.34246E-04   -0.10801E-06  1196   0.126E-03    0.170E-03
RMM:  33    -0.125407130811E+04   -0.46104E-04   -0.17552E-06  1276   0.137E-03    0.212E-03
RMM:  34    -0.125407133107E+04   -0.22956E-04   -0.12106E-06  1182   0.133E-03    0.137E-03
RMM:  35    -0.125407134552E+04   -0.14452E-04   -0.86591E-07  1105   0.113E-03    0.817E-04
RMM:  36    -0.125407135891E+04   -0.13386E-04   -0.78972E-07  1123   0.109E-03    0.741E-04
RMM:  37    -0.125407136994E+04   -0.11032E-04   -0.75148E-07  1127   0.103E-03    0.646E-04
RMM:  38    -0.125407137594E+04   -0.59978E-05   -0.61729E-07  1084   0.992E-04    0.341E-04
RMM:  39    -0.125407137894E+04   -0.30065E-05   -0.46452E-07  1018   0.851E-04    0.345E-04
RMM:  40    -0.125407138031E+04   -0.13697E-05   -0.32765E-07   971   0.762E-04    0.175E-04
RMM:  41    -0.125407138103E+04   -0.71375E-06   -0.22285E-07   919   0.623E-04
  10 F= -.12626457E+04 E0= -.12626387E+04  d E =-.993729E-01  mag=    10.2088
       N       E                     dE             d eps       ncg     rms          rms(c)
DAV:   1    -0.125405058240E+04    0.20798E-01   -0.17729E+01  2130   0.695E+00    0.169E+00
RMM:   2    -0.125408379865E+04   -0.33216E-01   -0.33478E-01  2433   0.114E+00    0.118E+00
RMM:   3    -0.125410444079E+04   -0.20642E-01   -0.67502E-02  2574   0.488E-01    0.249E+00
RMM:   4    -0.125409373378E+04    0.10707E-01   -0.23052E-02  2519   0.290E-01    0.153E+00
RMM:   5    -0.125409410669E+04   -0.37292E-03   -0.13922E-02  2368   0.233E-01    0.114E+00
RMM:   6    -0.125409365486E+04    0.45183E-03   -0.70890E-03  2429   0.169E-01    0.789E-01
RMM:   7    -0.125409278332E+04    0.87155E-03   -0.46754E-03  2424   0.134E-01    0.418E-01
RMM:   8    -0.125409332938E+04   -0.54606E-03   -0.18916E-03  2414   0.910E-02    0.456E-01
RMM:   9    -0.125409311791E+04    0.21147E-03   -0.12269E-03  2319   0.748E-02    0.290E-01
RMM:  10    -0.125409315311E+04   -0.35196E-04   -0.45403E-04  2328   0.451E-02    0.165E-01
RMM:  11    -0.125409320112E+04   -0.48009E-04   -0.20173E-04  2274   0.296E-02    0.127E-01
RMM:  12    -0.125409328797E+04   -0.86852E-04   -0.96612E-05  2209   0.195E-02    0.946E-02
RMM:  13    -0.125409333908E+04   -0.51113E-04   -0.42865E-05  1963   0.140E-02    0.463E-02
RMM:  14    -0.125409341542E+04   -0.76338E-04   -0.14611E-05  1770   0.704E-03    0.352E-02
RMM:  15    -0.125409347350E+04   -0.58085E-04   -0.14149E-05  1658   0.770E-03    0.412E-02
RMM:  16    -0.125409355311E+04   -0.79608E-04   -0.12413E-05  1680   0.719E-03    0.368E-02
RMM:  17    -0.125409359606E+04   -0.42949E-04   -0.82325E-06  1551   0.581E-03    0.264E-02
RMM:  18    -0.125409364822E+04   -0.52159E-04   -0.42981E-06  1494   0.427E-03    0.154E-02
RMM:  19    -0.125409367618E+04   -0.27961E-04   -0.19991E-06  1367   0.301E-03    0.156E-02
RMM:  20    -0.125409368701E+04   -0.10826E-04   -0.95358E-07  1273   0.211E-03    0.138E-02
RMM:  21    -0.125409369473E+04   -0.77218E-05   -0.49574E-07  1206   0.145E-03    0.122E-02
RMM:  22    -0.125409370884E+04   -0.14105E-04   -0.46009E-07  1150   0.135E-03    0.110E-02
RMM:  23    -0.125409377033E+04   -0.61497E-04   -0.19286E-06  1351   0.231E-03    0.811E-03
RMM:  24    -0.125409383159E+04   -0.61260E-04   -0.20254E-06  1373   0.229E-03    0.820E-03
RMM:  25    -0.125409385825E+04   -0.26660E-04   -0.10801E-06  1232   0.177E-03    0.624E-03
RMM:  26    -0.125409388134E+04   -0.23084E-04   -0.96633E-07  1206   0.162E-03    0.495E-03
RMM:  27    -0.125409390853E+04   -0.27191E-04   -0.10222E-06  1228   0.154E-03    0.412E-03
RMM:  28    -0.125409393555E+04   -0.27021E-04   -0.10001E-06  1188   0.140E-03    0.231E-03
RMM:  29    -0.125409396222E+04   -0.26670E-04   -0.10596E-06  1210   0.127E-03    0.203E-03
RMM:  30    -0.125409399034E+04   -0.28119E-04   -0.13372E-06  1240   0.129E-03    0.144E-03
RMM:  31    -0.125409400505E+04   -0.14714E-04   -0.97616E-07  1162   0.124E-03    0.150E-03
RMM:  32    -0.125409401496E+04   -0.99080E-05   -0.74629E-07  1110   0.106E-03    0.952E-04
RMM:  33    -0.125409402680E+04   -0.11842E-04   -0.77465E-07  1141   0.105E-03    0.989E-04
RMM:  34    -0.125409403540E+04   -0.85945E-05   -0.74519E-07  1137   0.103E-03    0.661E-04
RMM:  35    -0.125409403836E+04   -0.29615E-05   -0.51280E-07  1040   0.935E-04    0.479E-04
RMM:  36    -0.125409403966E+04   -0.13004E-05   -0.33971E-07   978   0.753E-04    0.418E-04
RMM:  37    -0.125409404113E+04   -0.14754E-05   -0.25972E-07   956   0.668E-04    0.403E-04
RMM:  38    -0.125409404215E+04   -0.10185E-05   -0.19534E-07   913   0.595E-04    0.184E-04
RMM:  39    -0.125409404268E+04   -0.52774E-06   -0.14022E-07   871   0.528E-04
  11 F= -.12626758E+04 E0= -.12626696E+04  d E =-.300899E-01  mag=    10.1827
       N       E                     dE             d eps       ncg     rms          rms(c)
DAV:   1    -0.125409562878E+04   -0.15866E-02   -0.54822E-01  2256   0.122E+00    0.299E-01
RMM:   2    -0.125409628821E+04   -0.65944E-03   -0.90756E-03  2431   0.195E-01    0.193E-01
RMM:   3    -0.125409706859E+04   -0.78038E-03   -0.16495E-03  2556   0.801E-02    0.452E-01
RMM:   4    -0.125409664329E+04    0.42530E-03   -0.63215E-04  2505   0.496E-02    0.255E-01
RMM:   5    -0.125409675355E+04   -0.11026E-03   -0.35647E-04  2306   0.397E-02    0.217E-01
RMM:   6    -0.125409670474E+04    0.48808E-04   -0.20488E-04  2352   0.300E-02    0.108E-01
RMM:   7    -0.125409673731E+04   -0.32569E-04   -0.10634E-04  2278   0.219E-02    0.943E-02
RMM:   8    -0.125409675296E+04   -0.15653E-04   -0.67143E-05  2098   0.170E-02    0.854E-02
RMM:   9    -0.125409675521E+04   -0.22429E-05   -0.38772E-05  1906   0.133E-02    0.451E-02
RMM:  10    -0.125409676867E+04   -0.13468E-04   -0.12868E-05  1614   0.786E-03    0.336E-02
RMM:  11    -0.125409677481E+04   -0.61366E-05   -0.63103E-06  1505   0.582E-03    0.222E-02
RMM:  12    -0.125409678490E+04   -0.10089E-04   -0.29825E-06  1414   0.382E-03    0.160E-02
RMM:  13    -0.125409678868E+04   -0.37820E-05   -0.12915E-06  1304   0.281E-03    0.683E-03
RMM:  14    -0.125409679288E+04   -0.42043E-05   -0.47574E-07  1248   0.151E-03    0.557E-03
RMM:  15    -0.125409679597E+04   -0.30881E-05   -0.46090E-07  1228   0.150E-03    0.806E-03
RMM:  16    -0.125409680013E+04   -0.41618E-05   -0.44492E-07  1229   0.143E-03    0.491E-03
RMM:  17    -0.125409680434E+04   -0.42083E-05   -0.33991E-07  1180   0.117E-03    0.355E-03
RMM:  18    -0.125409680672E+04   -0.23728E-05   -0.25021E-07  1081   0.103E-03    0.321E-03
RMM:  19    -0.125409680821E+04   -0.14986E-05   -0.15270E-07  1019   0.787E-04    0.309E-03
RMM:  20    -0.125409680868E+04   -0.46467E-06   -0.79040E-08   872   0.566E-04
  12 F= -.12626773E+04 E0= -.12626710E+04  d E =-.315725E-01  mag=    10.1864
       N       E                     dE             d eps       ncg     rms          rms(c)
DAV:   1    -0.125411055038E+04   -0.13742E-01   -0.27739E+00  2110   0.329E+00    0.582E-01
RMM:   2    -0.125411562367E+04   -0.50733E-02   -0.61262E-02  2554   0.501E-01    0.460E-01
RMM:   3    -0.125412052014E+04   -0.48965E-02   -0.10478E-02  2547   0.219E-01    0.154E+00
RMM:   4    -0.125411556433E+04    0.49558E-02   -0.39966E-03  2585   0.128E-01    0.437E-01
RMM:   5    -0.125411664875E+04   -0.10844E-02   -0.15868E-03  2376   0.870E-02    0.320E-01
RMM:   6    -0.125411659678E+04    0.51965E-04   -0.64817E-04  2487   0.516E-02    0.222E-01
RMM:   7    -0.125411667880E+04   -0.82018E-04   -0.51368E-04  2429   0.462E-02    0.228E-01
RMM:   8    -0.125411672645E+04   -0.47653E-04   -0.38924E-04  2407   0.393E-02    0.201E-01
RMM:   9    -0.125411667957E+04    0.46882E-04   -0.19690E-04  2329   0.302E-02    0.108E-01
RMM:  10    -0.125411670943E+04   -0.29863E-04   -0.47528E-05  1967   0.146E-02    0.900E-02
RMM:  11    -0.125411671727E+04   -0.78367E-05   -0.21944E-05  1677   0.972E-03    0.565E-02
RMM:  12    -0.125411673665E+04   -0.19379E-04   -0.78473E-06  1591   0.605E-03    0.266E-02
RMM:  13    -0.125411675530E+04   -0.18649E-04   -0.64520E-06  1532   0.541E-03    0.309E-02
RMM:  14    -0.125411677828E+04   -0.22984E-04   -0.69459E-06  1564   0.571E-03    0.279E-02
RMM:  15    -0.125411679713E+04   -0.18849E-04   -0.67644E-06  1510   0.552E-03    0.296E-02
RMM:  16    -0.125411680593E+04   -0.88013E-05   -0.31927E-06  1393   0.420E-03    0.178E-02
RMM:  17    -0.125411680692E+04   -0.98810E-06   -0.14281E-06  1322   0.274E-03
  13 F= -.12626998E+04 E0= -.12626933E+04  d E =-.225601E-01  mag=    10.1929
       N       E                     dE             d eps       ncg     rms          rms(c)
DAV:   1    -0.125411215660E+04    0.46493E-02   -0.44563E+00  2104   0.417E+00    0.736E-01
RMM:   2    -0.125412052077E+04   -0.83642E-02   -0.98882E-02  2550   0.636E-01    0.577E-01
RMM:   3    -0.125412808383E+04   -0.75631E-02   -0.16694E-02  2549   0.277E-01    0.194E+00
RMM:   4    -0.125412050691E+04    0.75769E-02   -0.63383E-03  2593   0.161E-01    0.565E-01
RMM:   5    -0.125412204938E+04   -0.15425E-02   -0.25563E-03  2387   0.110E-01    0.408E-01
RMM:   6    -0.125412192933E+04    0.12005E-03   -0.10463E-03  2481   0.656E-02    0.283E-01
RMM:   7    -0.125412204663E+04   -0.11730E-03   -0.83765E-04  2431   0.595E-02    0.290E-01
RMM:   8    -0.125412213127E+04   -0.84638E-04   -0.63911E-04  2411   0.504E-02    0.265E-01
RMM:   9    -0.125412204777E+04    0.83505E-04   -0.32727E-04  2355   0.390E-02    0.136E-01
RMM:  10    -0.125412209962E+04   -0.51855E-04   -0.75558E-05  2097   0.184E-02    0.115E-01
RMM:  11    -0.125412211054E+04   -0.10917E-04   -0.30852E-05  1808   0.112E-02    0.762E-02
RMM:  12    -0.125412213474E+04   -0.24200E-04   -0.10035E-05  1649   0.636E-03    0.484E-02
RMM:  13    -0.125412216812E+04   -0.33379E-04   -0.11728E-05  1669   0.711E-03    0.524E-02
RMM:  14    -0.125412221666E+04   -0.48545E-04   -0.20192E-05  1828   0.903E-03    0.550E-02
RMM:  15    -0.125412225898E+04   -0.42313E-04   -0.18291E-05  1701   0.906E-03    0.488E-02
RMM:  16    -0.125412227274E+04   -0.13765E-04   -0.88652E-06  1586   0.712E-03    0.315E-02
RMM:  17    -0.125412227515E+04   -0.24079E-05   -0.47888E-06  1481   0.472E-03    0.241E-02
RMM:  18    -0.125412227859E+04   -0.34377E-05   -0.29670E-06  1398   0.381E-03    0.179E-02
RMM:  19    -0.125412228724E+04   -0.86556E-05   -0.17049E-06  1314   0.285E-03    0.140E-02
RMM:  20    -0.125412230743E+04   -0.20186E-04   -0.15554E-06  1314   0.275E-03    0.981E-03
RMM:  21    -0.125412233931E+04   -0.31883E-04   -0.13715E-06  1314   0.255E-03    0.800E-03
RMM:  22    -0.125412235991E+04   -0.20601E-04   -0.81452E-07  1252   0.192E-03    0.637E-03
RMM:  23    -0.125412236936E+04   -0.94481E-05   -0.48103E-07  1162   0.145E-03    0.427E-03
RMM:  24    -0.125412238099E+04   -0.11624E-04   -0.35647E-07  1118   0.109E-03    0.436E-03
RMM:  25    -0.125412240135E+04   -0.20368E-04   -0.45933E-07  1193   0.100E-03    0.307E-03
RMM:  26    -0.125412242482E+04   -0.23469E-04   -0.61166E-07  1187   0.109E-03    0.331E-03
RMM:  27    -0.125412244141E+04   -0.16591E-04   -0.59098E-07  1173   0.112E-03    0.246E-03
RMM:  28    -0.125412244892E+04   -0.75043E-05   -0.40426E-07  1065   0.957E-04    0.157E-03
RMM:  29    -0.125412245486E+04   -0.59424E-05   -0.30069E-07   996   0.748E-04    0.129E-03
RMM:  30    -0.125412246385E+04   -0.89867E-05   -0.31181E-07  1058   0.723E-04    0.111E-03
RMM:  31    -0.125412247549E+04   -0.11643E-04   -0.42364E-07  1096   0.765E-04    0.131E-03
RMM:  32    -0.125412248282E+04   -0.73300E-05   -0.37249E-07  1048   0.778E-04    0.605E-04
RMM:  33    -0.125412248981E+04   -0.69938E-05   -0.41669E-07  1027   0.728E-04    0.617E-04
RMM:  34    -0.125412249448E+04   -0.46691E-05   -0.35259E-07  1055   0.765E-04    0.341E-04
RMM:  35    -0.125412249764E+04   -0.31538E-05   -0.31370E-07   993   0.662E-04    0.298E-04
RMM:  36    -0.125412249999E+04   -0.23569E-05   -0.26666E-07   990   0.666E-04    0.199E-04
RMM:  37    -0.125412250097E+04   -0.97862E-06   -0.19787E-07   909   0.568E-04
  14 F= -.12627087E+04 E0= -.12627020E+04  d E =-.314323E-01  mag=    10.2047
       N       E                     dE             d eps       ncg     rms          rms(c)
DAV:   1    -0.125412854213E+04   -0.60421E-02   -0.28436E+00  2168   0.338E+00    0.543E-01
RMM:   2    -0.125413432947E+04   -0.57873E-02   -0.61872E-02  2590   0.503E-01    0.529E-01
RMM:   3    -0.125414041037E+04   -0.60809E-02   -0.11167E-02  2570   0.214E-01    0.186E+00
RMM:   4    -0.125413350509E+04    0.69053E-02   -0.46777E-03  2542   0.138E-01    0.347E-01
RMM:   5    -0.125413520565E+04   -0.17006E-02   -0.15145E-03  2392   0.855E-02    0.289E-01
RMM:   6    -0.125413525011E+04   -0.44457E-04   -0.57024E-04  2470   0.493E-02    0.204E-01
RMM:   7    -0.125413534385E+04   -0.93736E-04   -0.48824E-04  2408   0.463E-02    0.224E-01
RMM:   8    -0.125413533966E+04    0.41867E-05   -0.32808E-04  2442   0.365E-02    0.176E-01
RMM:   9    -0.125413531747E+04    0.22185E-04   -0.17526E-04  2320   0.289E-02    0.112E-01
RMM:  10    -0.125413533451E+04   -0.17037E-04   -0.47900E-05  1952   0.147E-02    0.928E-02
RMM:  11    -0.125413533933E+04   -0.48153E-05   -0.21326E-05  1691   0.975E-03    0.628E-02
RMM:  12    -0.125413536108E+04   -0.21755E-04   -0.10669E-05  1640   0.717E-03    0.285E-02
RMM:  13    -0.125413538463E+04   -0.23547E-04   -0.63186E-06  1533   0.547E-03    0.202E-02
RMM:  14    -0.125413540254E+04   -0.17915E-04   -0.32643E-06  1427   0.423E-03    0.178E-02
RMM:  15    -0.125413541115E+04   -0.86022E-05   -0.20228E-06  1375   0.335E-03    0.145E-02
RMM:  16    -0.125413541946E+04   -0.83171E-05   -0.10914E-06  1297   0.241E-03    0.115E-02
RMM:  17    -0.125413542585E+04   -0.63829E-05   -0.80743E-07  1273   0.211E-03    0.103E-02
RMM:  18    -0.125413543789E+04   -0.12044E-04   -0.75060E-07  1253   0.189E-03    0.783E-03
RMM:  19    -0.125413544822E+04   -0.10331E-04   -0.96742E-07  1292   0.207E-03    0.111E-02
RMM:  20    -0.125413545685E+04   -0.86279E-05   -0.68617E-07  1251   0.184E-03    0.637E-03
RMM:  21    -0.125413546210E+04   -0.52538E-05   -0.34554E-07  1145   0.123E-03    0.437E-03
RMM:  22    -0.125413546554E+04   -0.34343E-05   -0.22137E-07  1086   0.886E-04    0.314E-03
RMM:  23    -0.125413547013E+04   -0.45933E-05   -0.18785E-07  1064   0.787E-04    0.278E-03
RMM:  24    -0.125413547845E+04   -0.83182E-05   -0.25827E-07  1131   0.866E-04    0.392E-03
RMM:  25    -0.125413548717E+04   -0.87270E-05   -0.26653E-07  1130   0.862E-04    0.275E-03
RMM:  26    -0.125413549216E+04   -0.49902E-05   -0.20240E-07  1017   0.701E-04    0.150E-03
RMM:  27    -0.125413549652E+04   -0.43596E-05   -0.18125E-07  1016   0.613E-04    0.130E-03
RMM:  28    -0.125413549902E+04   -0.24917E-05   -0.13486E-07   930   0.549E-04    0.880E-04
RMM:  29    -0.125413550128E+04   -0.22592E-05   -0.11333E-07   867   0.483E-04    0.997E-04
RMM:  30    -0.125413550442E+04   -0.31429E-05   -0.12054E-07   929   0.498E-04    0.676E-04
RMM:  31    -0.125413550755E+04   -0.31317E-05   -0.13655E-07   984   0.500E-04    0.724E-04
RMM:  32    -0.125413550913E+04   -0.15817E-05   -0.10774E-07   913   0.486E-04    0.391E-04
RMM:  33    -0.125413551048E+04   -0.13513E-05   -0.96598E-08   843   0.428E-04    0.406E-04
RMM:  34    -0.125413551184E+04   -0.13524E-05   -0.97984E-08   927   0.447E-04    0.225E-04
RMM:  35    -0.125413551269E+04   -0.85825E-06   -0.89156E-08   866   0.423E-04
  15 F= -.12627246E+04 E0= -.12627181E+04  d E =-.159088E-01  mag=    10.1955
       N       E                     dE             d eps       ncg     rms          rms(c)
DAV:   1    -0.125412942258E+04    0.60893E-02   -0.36793E+00  2110   0.385E+00    0.618E-01
RMM:   2    -0.125413697834E+04   -0.75558E-02   -0.80089E-02  2586   0.573E-01    0.601E-01
RMM:   3    -0.125414474122E+04   -0.77629E-02   -0.14546E-02  2570   0.244E-01    0.211E+00
RMM:   4    -0.125413595352E+04    0.87877E-02   -0.60516E-03  2549   0.157E-01    0.388E-01
RMM:   5    -0.125413808006E+04   -0.21265E-02   -0.19487E-03  2379   0.974E-02    0.330E-01
RMM:   6    -0.125413812495E+04   -0.44894E-04   -0.74582E-04  2490   0.563E-02    0.237E-01
RMM:   7    -0.125413824106E+04   -0.11611E-03   -0.63410E-04  2395   0.528E-02    0.260E-01
RMM:   8    -0.125413821762E+04    0.23438E-04   -0.42185E-04  2438   0.418E-02    0.192E-01
RMM:   9    -0.125413819911E+04    0.18507E-04   -0.22239E-04  2336   0.327E-02    0.131E-01
RMM:  10    -0.125413821517E+04   -0.16052E-04   -0.63058E-05  2028   0.169E-02    0.106E-01
RMM:  11    -0.125413822097E+04   -0.58055E-05   -0.27922E-05  1775   0.111E-02    0.704E-02
RMM:  12    -0.125413824750E+04   -0.26532E-04   -0.13981E-05  1679   0.806E-03    0.334E-02
RMM:  13    -0.125413827557E+04   -0.28072E-04   -0.82045E-06  1583   0.621E-03    0.230E-02
RMM:  14    -0.125413829777E+04   -0.22198E-04   -0.42175E-06  1465   0.472E-03    0.203E-02
RMM:  15    -0.125413830870E+04   -0.10925E-04   -0.25620E-06  1403   0.376E-03    0.158E-02
RMM:  16    -0.125413831931E+04   -0.10615E-04   -0.13946E-06  1330   0.268E-03    0.132E-02
RMM:  17    -0.125413832727E+04   -0.79601E-05   -0.10094E-06  1295   0.240E-03    0.113E-02
RMM:  18    -0.125413834312E+04   -0.15852E-04   -0.95501E-07  1275   0.209E-03    0.900E-03
RMM:  19    -0.125413835525E+04   -0.12120E-04   -0.12297E-06  1314   0.237E-03    0.124E-02
RMM:  20    -0.125413836614E+04   -0.10898E-04   -0.79901E-07  1276   0.197E-03    0.674E-03
RMM:  21    -0.125413837220E+04   -0.60568E-05   -0.40272E-07  1170   0.134E-03    0.496E-03
RMM:  22    -0.125413837628E+04   -0.40836E-05   -0.26409E-07  1096   0.976E-04    0.359E-03
RMM:  23    -0.125413838152E+04   -0.52380E-05   -0.21687E-07  1061   0.871E-04    0.323E-03
RMM:  24    -0.125413839207E+04   -0.10549E-04   -0.30450E-07  1154   0.974E-04    0.432E-03
RMM:  25    -0.125413840344E+04   -0.11367E-04   -0.31491E-07  1150   0.928E-04    0.298E-03
RMM:  26    -0.125413840996E+04   -0.65205E-05   -0.24862E-07  1047   0.741E-04    0.171E-03
RMM:  27    -0.125413841529E+04   -0.53312E-05   -0.22107E-07  1037   0.668E-04    0.149E-03
RMM:  28    -0.125413841872E+04   -0.34350E-05   -0.17306E-07   939   0.590E-04    0.999E-04
RMM:  29    -0.125413842217E+04   -0.34418E-05   -0.15816E-07   915   0.547E-04    0.106E-03
RMM:  30    -0.125413842603E+04   -0.38633E-05   -0.16473E-07   991   0.568E-04    0.820E-04
RMM:  31    -0.125413842951E+04   -0.34808E-05   -0.17150E-07  1013   0.564E-04    0.862E-04
RMM:  32    -0.125413843132E+04   -0.18139E-05   -0.13260E-07   908   0.522E-04    0.432E-04
RMM:  33    -0.125413843308E+04   -0.17575E-05   -0.12499E-07   894   0.464E-04    0.406E-04
RMM:  34    -0.125413843483E+04   -0.17479E-05   -0.12645E-07   950   0.487E-04    0.252E-04
RMM:  35    -0.125413843577E+04   -0.94000E-06   -0.10830E-07   890   0.458E-04
  16 F= -.12627308E+04 E0= -.12627246E+04  d E =-.220975E-01  mag=    10.1851
       N       E                     dE             d eps       ncg     rms          rms(c)
DAV:   1    -0.125414146028E+04   -0.30254E-02   -0.25847E+00  2124   0.329E+00    0.540E-01
RMM:   2    -0.125414694056E+04   -0.54803E-02   -0.63431E-02  2540   0.508E-01    0.453E-01
RMM:   3    -0.125415076659E+04   -0.38260E-02   -0.99431E-03  2544   0.213E-01    0.140E+00
RMM:   4    -0.125414681316E+04    0.39534E-02   -0.35733E-03  2611   0.118E-01    0.403E-01
RMM:   5    -0.125414762921E+04   -0.81605E-03   -0.14711E-03  2377   0.850E-02    0.281E-01
RMM:   6    -0.125414760763E+04    0.21580E-04   -0.66694E-04  2547   0.487E-02    0.269E-01
RMM:   7    -0.125414748222E+04    0.12541E-03   -0.47650E-04  2397   0.466E-02    0.171E-01
RMM:   8    -0.125414761962E+04   -0.13740E-03   -0.35945E-04  2393   0.380E-02    0.217E-01
RMM:   9    -0.125414755177E+04    0.67847E-04   -0.20758E-04  2303   0.299E-02    0.131E-01
RMM:  10    -0.125414758505E+04   -0.33284E-04   -0.67683E-05  2032   0.179E-02    0.110E-01
RMM:  11    -0.125414760101E+04   -0.15951E-04   -0.29718E-05  1769   0.116E-02    0.666E-02
RMM:  12    -0.125414762957E+04   -0.28560E-04   -0.15562E-05  1667   0.848E-03    0.319E-02
RMM:  13    -0.125414765552E+04   -0.25952E-04   -0.78920E-06  1583   0.624E-03    0.264E-02
RMM:  14    -0.125414768206E+04   -0.26537E-04   -0.52154E-06  1514   0.494E-03    0.255E-02
RMM:  15    -0.125414769913E+04   -0.17079E-04   -0.39273E-06  1456   0.451E-03    0.174E-02
RMM:  16    -0.125414771006E+04   -0.10922E-04   -0.22396E-06  1380   0.323E-03    0.167E-02
RMM:  17    -0.125414771340E+04   -0.33410E-05   -0.11198E-06  1300   0.260E-03    0.106E-02
RMM:  18    -0.125414771489E+04   -0.14885E-05   -0.40991E-07  1183   0.135E-03    0.102E-02
RMM:  19    -0.125414771715E+04   -0.22615E-05   -0.28369E-07  1094   0.115E-03    0.988E-03
RMM:  20    -0.125414772256E+04   -0.54098E-05   -0.36488E-07  1105   0.122E-03    0.900E-03
RMM:  21    -0.125414773592E+04   -0.13368E-04   -0.66825E-07  1215   0.160E-03    0.583E-03
RMM:  22    -0.125414774872E+04   -0.12795E-04   -0.60620E-07  1192   0.157E-03    0.439E-03
RMM:  23    -0.125414775484E+04   -0.61169E-05   -0.32913E-07  1112   0.115E-03    0.348E-03
RMM:  24    -0.125414776170E+04   -0.68596E-05   -0.26294E-07  1083   0.844E-04    0.372E-03
RMM:  25    -0.125414777325E+04   -0.11554E-04   -0.39922E-07  1185   0.867E-04    0.204E-03
RMM:  26    -0.125414778322E+04   -0.99656E-05   -0.41280E-07  1109   0.868E-04    0.187E-03
RMM:  27    -0.125414778937E+04   -0.61514E-05   -0.34971E-07  1055   0.806E-04    0.152E-03
RMM:  28    -0.125414779288E+04   -0.35092E-05   -0.24580E-07   994   0.719E-04    0.957E-04
RMM:  29    -0.125414779582E+04   -0.29392E-05   -0.19892E-07   950   0.602E-04    0.761E-04
RMM:  30    -0.125414779974E+04   -0.39266E-05   -0.20294E-07   970   0.580E-04    0.661E-04
RMM:  31    -0.125414780467E+04   -0.49256E-05   -0.28114E-07  1063   0.623E-04    0.821E-04
RMM:  32    -0.125414780740E+04   -0.27294E-05   -0.22737E-07   992   0.625E-04    0.437E-04
RMM:  33    -0.125414780920E+04   -0.18036E-05   -0.19771E-07   939   0.549E-04    0.453E-04
RMM:  34    -0.125414781040E+04   -0.12026E-05   -0.15077E-07   907   0.532E-04    0.231E-04
RMM:  35    -0.125414781143E+04   -0.10279E-05   -0.13023E-07   874   0.466E-04    0.170E-04
RMM:  36    -0.125414781216E+04   -0.73046E-06   -0.10425E-07   856   0.460E-04
  17 F= -.12627422E+04 E0= -.12627358E+04  d E =-.113905E-01  mag=    10.1918
       N       E                     dE             d eps       ncg     rms          rms(c)
DAV:   1    -0.125414745152E+04    0.35991E-03   -0.11371E-01  2288   0.693E-01    0.112E-01
RMM:   2    -0.125414765316E+04   -0.20165E-03   -0.27948E-03  2547   0.107E-01    0.941E-02
RMM:   3    -0.125414783511E+04   -0.18194E-03   -0.43002E-04  2546   0.440E-02    0.272E-01
RMM:   4    -0.125414765279E+04    0.18231E-03   -0.14980E-04  2472   0.243E-02    0.850E-02
RMM:   5    -0.125414770932E+04   -0.56530E-04   -0.61824E-05  2045   0.176E-02    0.582E-02
RMM:   6    -0.125414771181E+04   -0.24831E-05   -0.29243E-05  2066   0.105E-02    0.566E-02
RMM:   7    -0.125414770663E+04    0.51758E-05   -0.21258E-05  1907   0.101E-02    0.333E-02
RMM:   8    -0.125414771467E+04   -0.80403E-05   -0.14958E-05  1822   0.808E-03    0.433E-02
[...]
RMM:   6    -0.125424014151E+04   -0.67629E-05   -0.12260E-05  1728   0.755E-03    0.360E-02
RMM:   7    -0.125424014108E+04    0.42724E-06   -0.81046E-06  1582   0.660E-03
 187 F= -.12629306E+04 E0= -.12629234E+04  d E =-.237746E-03  mag=    10.1942
       N       E                     dE             d eps       ncg     rms          rms(c)
DAV:   1    -0.125424005476E+04    0.86742E-04   -0.20972E-02  2264   0.300E-01    0.473E-02
RMM:   2    -0.125424011179E+04   -0.57027E-04   -0.53440E-04  2402   0.456E-02    0.111E-01
RMM:   3    -0.125424009007E+04    0.21723E-04   -0.89090E-05  2337   0.215E-02    0.769E-02
RMM:   4    -0.125424009585E+04   -0.57785E-05   -0.32100E-05  2068   0.113E-02    0.775E-02
RMM:   5    -0.125424008580E+04    0.10044E-04   -0.15258E-05  1658   0.876E-03    0.318E-02
RMM:   6    -0.125424009136E+04   -0.55562E-05   -0.86537E-06  1595   0.671E-03    0.238E-02
RMM:   7    -0.125424009449E+04   -0.31321E-05   -0.54824E-06  1538   0.552E-03    0.238E-02
RMM:   8    -0.125424009522E+04   -0.72589E-06   -0.31193E-06  1407   0.432E-03
 188 F= -.12629306E+04 E0= -.12629235E+04  d E =-.260602E-03  mag=    10.1932
       N       E                     dE             d eps       ncg     rms          rms(c)
DAV:   1    -0.125424011356E+04   -0.19066E-04   -0.47257E-02  2192   0.457E-01    0.637E-02
RMM:   2    -0.125424020228E+04   -0.88724E-04   -0.11530E-03  2481   0.634E-02    0.460E-02
RMM:   3    -0.125424024410E+04   -0.41819E-04   -0.13321E-04  2390   0.277E-02    0.965E-02
RMM:   4    -0.125424021738E+04    0.26715E-04   -0.51542E-05  2294   0.142E-02    0.328E-02
RMM:   5    -0.125424022988E+04   -0.12500E-04   -0.11946E-05  1753   0.785E-03    0.471E-02
RMM:   6    -0.125424023070E+04   -0.81179E-06   -0.91556E-06  1544   0.626E-03
 189 F= -.12629308E+04 E0= -.12629236E+04  d E =-.233737E-03  mag=    10.1930
       N       E                     dE             d eps       ncg     rms          rms(c)
DAV:   1    -0.125423959437E+04    0.63552E-03   -0.24830E-01  2104   0.105E+00    0.144E-01
RMM:   2    -0.125424012605E+04   -0.53168E-03   -0.60760E-03  2447   0.147E-01    0.147E-01
RMM:   3    -0.125424033126E+04   -0.20521E-03   -0.84542E-04  2381   0.694E-02    0.260E-01
RMM:   4    -0.125424014316E+04    0.18810E-03   -0.30004E-04  2644   0.354E-02    0.851E-02
RMM:   5    -0.125424018977E+04   -0.46614E-04   -0.65484E-05  2156   0.167E-02    0.104E-01
RMM:   6    -0.125424019555E+04   -0.57766E-05   -0.42577E-05  2068   0.123E-02    0.113E-01
RMM:   7    -0.125424018175E+04    0.13803E-04   -0.37520E-05  1952   0.131E-02    0.487E-02
RMM:   8    -0.125424021617E+04   -0.34421E-04   -0.34655E-05  1965   0.122E-02    0.695E-02
RMM:   9    -0.125424020603E+04    0.10141E-04   -0.18032E-05  1701   0.965E-03    0.275E-02
RMM:  10    -0.125424021141E+04   -0.53780E-05   -0.56205E-06  1515   0.565E-03    0.185E-02
RMM:  11    -0.125424021260E+04   -0.11953E-05   -0.18212E-06  1346   0.336E-03    0.165E-02
RMM:  12    -0.125424021266E+04   -0.57473E-07   -0.77780E-07  1250   0.223E-03
 190 F= -.12629310E+04 E0= -.12629239E+04  d E =-.440022E-03  mag=    10.1928
       N       E                     dE             d eps       ncg     rms          rms(c)
DAV:   1    -0.125424016724E+04    0.45362E-04   -0.68529E-02  2170   0.541E-01    0.672E-02
RMM:   2    -0.125424029113E+04   -0.12390E-03   -0.15962E-03  2439   0.744E-02    0.612E-02
RMM:   3    -0.125424036567E+04   -0.74531E-04   -0.19163E-04  2347   0.333E-02    0.164E-01
RMM:   4    -0.125424029744E+04    0.68221E-04   -0.76125E-05  2393   0.174E-02    0.633E-02
RMM:   5    -0.125424032031E+04   -0.22861E-04   -0.24958E-05  1851   0.113E-02    0.434E-02
RMM:   6    -0.125424032311E+04   -0.28074E-05   -0.10222E-05  1744   0.681E-03    0.240E-02
RMM:   7    -0.125424032849E+04   -0.53794E-05   -0.89038E-06  1622   0.639E-03    0.299E-02
RMM:   8    -0.125424032948E+04   -0.98460E-06   -0.59322E-06  1531   0.569E-03
 191 F= -.12629313E+04 E0= -.12629241E+04  d E =-.247493E-03  mag=    10.1936
       N       E                     dE             d eps       ncg     rms          rms(c)
DAV:   1    -0.125424016109E+04    0.16740E-03   -0.46856E-02  2248   0.448E-01    0.573E-02
RMM:   2    -0.125424024657E+04   -0.85481E-04   -0.10985E-03  2441   0.627E-02    0.736E-02
RMM:   3    -0.125424027553E+04   -0.28953E-04   -0.14802E-04  2366   0.288E-02    0.998E-02
RMM:   4    -0.125424025464E+04    0.20886E-04   -0.50639E-05  2304   0.144E-02    0.483E-02
RMM:   5    -0.125424025999E+04   -0.53511E-05   -0.14699E-05  1753   0.795E-03    0.543E-02
RMM:   6    -0.125424025877E+04    0.12218E-05   -0.93707E-06  1625   0.670E-03    0.333E-02
RMM:   7    -0.125424026175E+04   -0.29827E-05   -0.75568E-06  1573   0.641E-03    0.257E-02
RMM:   8    -0.125424026380E+04   -0.20498E-05   -0.49117E-06  1497   0.507E-03    0.251E-02
RMM:   9    -0.125424026348E+04    0.31957E-06   -0.30127E-06  1414   0.427E-03
 192 F= -.12629313E+04 E0= -.12629241E+04  d E =-.289370E-03  mag=    10.1946
       N       E                     dE             d eps       ncg     rms          rms(c)
DAV:   1    -0.125424020679E+04    0.57014E-04   -0.45102E-02  2208   0.442E-01    0.532E-02
RMM:   2    -0.125424029172E+04   -0.84926E-04   -0.10288E-03  2408   0.599E-02    0.685E-02
RMM:   3    -0.125424033498E+04   -0.43265E-04   -0.12898E-04  2288   0.274E-02    0.144E-01
RMM:   4    -0.125424029651E+04    0.38470E-04   -0.60361E-05  2315   0.149E-02    0.619E-02
RMM:   5    -0.125424030768E+04   -0.11169E-04   -0.18348E-05  1782   0.102E-02    0.287E-02
RMM:   6    -0.125424031328E+04   -0.55968E-05   -0.79756E-06  1595   0.607E-03    0.283E-02
RMM:   7    -0.125424031433E+04   -0.10511E-05   -0.53754E-06  1492   0.524E-03    0.232E-02
RMM:   8    -0.125424031639E+04   -0.20591E-05   -0.49785E-06  1457   0.485E-03    0.251E-02
RMM:   9    -0.125424031647E+04   -0.83513E-07   -0.32907E-06  1424   0.439E-03
 193 F= -.12629315E+04 E0= -.12629243E+04  d E =-.206793E-03  mag=    10.1946
       N       E                     dE             d eps       ncg     rms          rms(c)
DAV:   1    -0.125423987001E+04    0.44638E-03   -0.12745E-01  2156   0.743E-01    0.882E-02
RMM:   2    -0.125424011039E+04   -0.24039E-03   -0.29085E-03  2436   0.101E-01    0.893E-02
RMM:   3    -0.125424021325E+04   -0.10285E-03   -0.35222E-04  2349   0.453E-02    0.175E-01
RMM:   4    -0.125424014591E+04    0.67331E-04   -0.13648E-04  2522   0.232E-02    0.989E-02
RMM:   5    -0.125424014356E+04    0.23580E-05   -0.36068E-05  1964   0.125E-02    0.515E-02
RMM:   6    -0.125424015544E+04   -0.11887E-04   -0.20101E-05  1924   0.931E-03    0.425E-02
RMM:   7    -0.125424015685E+04   -0.14039E-05   -0.16498E-05  1797   0.847E-03    0.401E-02
RMM:   8    -0.125424016484E+04   -0.79963E-05   -0.17084E-05  1819   0.837E-03    0.458E-02
RMM:   9    -0.125424016104E+04    0.38088E-05   -0.86842E-06  1526   0.659E-03    0.201E-02
RMM:  10    -0.125424016351E+04   -0.24786E-05   -0.21243E-06  1384   0.355E-03    0.191E-02
RMM:  11    -0.125424016306E+04    0.45321E-06   -0.63279E-07  1222   0.206E-03
 194 F= -.12629316E+04 E0= -.12629245E+04  d E =-.311567E-03  mag=    10.1941
       N       E                     dE             d eps       ncg     rms          rms(c)
DAV:   1    -0.125424015249E+04    0.11025E-04   -0.58991E-02  2192   0.510E-01    0.714E-02
RMM:   2    -0.125424026796E+04   -0.11547E-03   -0.14262E-03  2395   0.704E-02    0.561E-02
RMM:   3    -0.125424033397E+04   -0.66014E-04   -0.17895E-04  2296   0.328E-02    0.142E-01
RMM:   4    -0.125424027880E+04    0.55174E-04   -0.70739E-05  2369   0.174E-02    0.598E-02
RMM:   5    -0.125424029372E+04   -0.14924E-04   -0.19514E-05  1825   0.970E-03    0.432E-02
RMM:   6    -0.125424029620E+04   -0.24813E-05   -0.79991E-06  1627   0.626E-03    0.266E-02
RMM:   7    -0.125424030327E+04   -0.70657E-05   -0.96322E-06  1602   0.707E-03    0.364E-02
RMM:   8    -0.125424030558E+04   -0.23176E-05   -0.60453E-06  1492   0.563E-03    0.247E-02
RMM:   9    -0.125424030596E+04   -0.38087E-06   -0.24355E-06  1357   0.391E-03
 195 F= -.12629319E+04 E0= -.12629247E+04  d E =-.264948E-03  mag=    10.1937
       N       E                     dE             d eps       ncg     rms          rms(c)
DAV:   1    -0.125423907968E+04    0.12259E-02   -0.45818E-01  2104   0.142E+00    0.194E-01
RMM:   2    -0.125424002925E+04   -0.94957E-03   -0.11012E-02  2383   0.195E-01    0.149E-01
RMM:   3    -0.125424063972E+04   -0.61047E-03   -0.13976E-03  2288   0.924E-02    0.515E-01
RMM:   4    -0.125424003591E+04    0.60381E-03   -0.60975E-04  2646   0.498E-02    0.146E-01
RMM:   5    -0.125424018525E+04   -0.14934E-03   -0.16451E-04  2207   0.288E-02    0.101E-01
RMM:   6    -0.125424019430E+04   -0.90437E-05   -0.55676E-05  2219   0.150E-02    0.677E-02
RMM:   7    -0.125424022763E+04   -0.33337E-04   -0.65899E-05  2177   0.167E-02    0.916E-02
RMM:   8    -0.125424023121E+04   -0.35765E-05   -0.45519E-05  2041   0.142E-02    0.631E-02
RMM:   9    -0.125424022919E+04    0.20194E-05   -0.20655E-05  1710   0.101E-02    0.344E-02
RMM:  10    -0.125424023036E+04   -0.11740E-05   -0.41107E-06  1481   0.454E-03    0.267E-02
RMM:  11    -0.125424022938E+04    0.98556E-06   -0.12388E-06  1287   0.272E-03
 196 F= -.12629321E+04 E0= -.12629250E+04  d E =-.526309E-03  mag=    10.1927
       N       E                     dE             d eps       ncg     rms          rms(c)
DAV:   1    -0.125424026385E+04   -0.33482E-04   -0.61475E-02  2192   0.515E-01    0.686E-02
RMM:   2    -0.125424038164E+04   -0.11779E-03   -0.14366E-03  2369   0.712E-02    0.688E-02
RMM:   3    -0.125424045109E+04   -0.69451E-04   -0.19211E-04  2288   0.333E-02    0.159E-01
RMM:   4    -0.125424039946E+04    0.51628E-04   -0.78734E-05  2395   0.175E-02    0.828E-02
RMM:   5    -0.125424040546E+04   -0.60012E-05   -0.26547E-05  1853   0.116E-02    0.358E-02
RMM:   6    -0.125424041915E+04   -0.13685E-04   -0.10829E-05  1732   0.698E-03    0.333E-02
RMM:   7    -0.125424042172E+04   -0.25767E-05   -0.72533E-06  1530   0.617E-03    0.313E-02
RMM:   8    -0.125424042340E+04   -0.16710E-05   -0.43560E-06  1459   0.475E-03    0.251E-02
RMM:   9    -0.125424042320E+04    0.19230E-06   -0.22132E-06  1363   0.367E-03
 197 F= -.12629324E+04 E0= -.12629252E+04  d E =-.243154E-03  mag=    10.1927
       N       E                     dE             d eps       ncg     rms          rms(c)
DAV:   1    -0.125424033428E+04    0.89119E-04   -0.66436E-02  2178   0.535E-01    0.698E-02
RMM:   2    -0.125424046246E+04   -0.12818E-03   -0.15460E-03  2344   0.746E-02    0.890E-02
RMM:   3    -0.125424051925E+04   -0.56789E-04   -0.21684E-04  2279   0.355E-02    0.153E-01
RMM:   4    -0.125424048015E+04    0.39102E-04   -0.82971E-05  2422   0.183E-02    0.954E-02
RMM:   5    -0.125424047415E+04    0.59955E-05   -0.28131E-05  1886   0.120E-02    0.369E-02
RMM:   6    -0.125424048950E+04   -0.15352E-04   -0.13937E-05  1758   0.771E-03    0.414E-02
RMM:   7    -0.125424048781E+04    0.16880E-05   -0.81898E-06  1574   0.650E-03    0.252E-02
RMM:   8    -0.125424049370E+04   -0.58806E-05   -0.68844E-06  1584   0.576E-03    0.315E-02
RMM:   9    -0.125424049247E+04    0.12288E-05   -0.47382E-06  1487   0.530E-03    0.200E-02
RMM:  10    -0.125424049418E+04   -0.17096E-05   -0.30179E-06  1424   0.402E-03    0.174E-02
RMM:  11    -0.125424049593E+04   -0.17553E-05   -0.21775E-06  1359   0.359E-03    0.147E-02
RMM:  12    -0.125424049696E+04   -0.10261E-05   -0.13841E-06  1298   0.285E-03    0.140E-02
RMM:  13    -0.125424049692E+04    0.33302E-07   -0.83591E-07  1240   0.228E-03
 198 F= -.12629325E+04 E0= -.12629254E+04  d E =-.367796E-03  mag=    10.1933
       N       E                     dE             d eps       ncg     rms          rms(c)
DAV:   1    -0.125424044516E+04    0.51796E-04   -0.15889E-02  2224   0.262E-01    0.335E-02
RMM:   2    -0.125424047412E+04   -0.28956E-04   -0.37381E-04  2385   0.364E-02    0.342E-02
RMM:   3    -0.125424048920E+04   -0.15083E-04   -0.48516E-05  2181   0.170E-02    0.602E-02
RMM:   4    -0.125424048015E+04    0.90532E-05   -0.17639E-05  1945   0.881E-03    0.302E-02
RMM:   5    -0.125424048205E+04   -0.18993E-05   -0.51142E-06  1473   0.541E-03    0.270E-02
RMM:   6    -0.125424048235E+04   -0.30573E-06   -0.29089E-06  1407   0.408E-03
 199 F= -.12629325E+04 E0= -.12629253E+04  d E =-.378019E-03  mag=    10.1936
       N       E                     dE             d eps       ncg     rms          rms(c)
DAV:   1    -0.125424054352E+04   -0.61470E-04   -0.77069E-02  2116   0.567E-01    0.663E-02
RMM:   2    -0.125424069275E+04   -0.14923E-03   -0.17317E-03  2391   0.768E-02    0.871E-02
RMM:   3    -0.125424076978E+04   -0.77034E-04   -0.22206E-04  2344   0.349E-02    0.199E-01
RMM:   4    -0.125424069061E+04    0.79174E-04   -0.96368E-05  2408   0.189E-02    0.642E-02
RMM:   5    -0.125424071484E+04   -0.24236E-04   -0.25969E-05  1873   0.116E-02    0.319E-02
RMM:   6    -0.125424072361E+04   -0.87735E-05   -0.11774E-05  1791   0.675E-03    0.362E-02
RMM:   7    -0.125424072449E+04   -0.87440E-06   -0.89833E-06  1573   0.650E-03
 200 F= -.12629328E+04 E0= -.12629257E+04  d E =-.298762E-03  mag=    10.1935
       N       E                     dE             d eps       ncg     rms          rms(c)
DAV:   1    -0.125423921717E+04    0.15064E-02   -0.69345E-01  2104   0.170E+00    0.198E-01
RMM:   2    -0.125424061257E+04   -0.13954E-02   -0.15521E-02  2349   0.230E-01    0.168E-01
RMM:   3    -0.125424108088E+04   -0.46831E-03   -0.17770E-03  2300   0.104E-01    0.370E-01
RMM:   4    -0.125424079173E+04    0.28916E-03   -0.73558E-04  2704   0.520E-02    0.180E-01
RMM:   5    -0.125424083040E+04   -0.38676E-04   -0.17351E-04  2277   0.270E-02    0.138E-01
RMM:   6    -0.125424083255E+04   -0.21438E-05   -0.97921E-05  2247   0.203E-02    0.951E-02
RMM:   7    -0.125424083591E+04   -0.33603E-05   -0.70889E-05  2287   0.174E-02    0.605E-02
RMM:   8    -0.125424087704E+04   -0.41136E-04   -0.71273E-05  2195   0.165E-02    0.101E-01
RMM:   9    -0.125424085257E+04    0.24475E-04   -0.38617E-05  1933   0.133E-02    0.399E-02
RMM:  10    -0.125424085952E+04   -0.69505E-05   -0.12723E-05  1629   0.772E-03    0.261E-02
RMM:  11    -0.125424086099E+04   -0.14710E-05   -0.40994E-06  1461   0.457E-03    0.168E-02
RMM:  12    -0.125424086232E+04   -0.13282E-05   -0.14692E-06  1331   0.291E-03    0.120E-02
RMM:  13    -0.125424086319E+04   -0.87137E-06   -0.60117E-07  1235   0.188E-03
 201 F= -.12629331E+04 E0= -.12629260E+04  d E =-.604956E-03  mag=    10.1928
       N       E                     dE             d eps       ncg     rms          rms(c)
DAV:   1    -0.125424079851E+04    0.63809E-04   -0.83682E-02  2192   0.599E-01    0.759E-02
RMM:   2    -0.125424096071E+04   -0.16220E-03   -0.19436E-03  2395   0.821E-02    0.552E-02
RMM:   3    -0.125424105424E+04   -0.93525E-04   -0.23098E-04  2316   0.372E-02    0.169E-01
RMM:   4    -0.125424097948E+04    0.74755E-04   -0.94345E-05  2409   0.192E-02    0.625E-02
RMM:   5    -0.125424100150E+04   -0.22019E-04   -0.24884E-05  1892   0.115E-02    0.396E-02
RMM:   6    -0.125424100573E+04   -0.42275E-05   -0.89743E-06  1660   0.649E-03    0.267E-02
RMM:   7    -0.125424101106E+04   -0.53345E-05   -0.84168E-06  1600   0.651E-03    0.309E-02
RMM:   8    -0.125424101545E+04   -0.43858E-05   -0.68878E-06  1581   0.589E-03    0.258E-02
RMM:   9    -0.125424101627E+04   -0.82349E-06   -0.38329E-06  1458   0.481E-03
 202 F= -.12629334E+04 E0= -.12629262E+04  d E =-.254407E-03  mag=    10.1923
       N       E                     dE             d eps       ncg     rms          rms(c)
DAV:   1    -0.125423921623E+04    0.17992E-02   -0.75224E-01  2104   0.180E+00    0.226E-01
RMM:   2    -0.125424080226E+04   -0.15860E-02   -0.17467E-02  2386   0.246E-01    0.194E-01
RMM:   3    -0.125424178970E+04   -0.98744E-03   -0.22578E-03  2328   0.116E-01    0.661E-01
RMM:   4    -0.125424082812E+04    0.96157E-03   -0.97379E-04  2655   0.618E-02    0.186E-01
RMM:   5    -0.125424103532E+04   -0.20720E-03   -0.25430E-04  2266   0.354E-02    0.112E-01
RMM:   6    -0.125424105708E+04   -0.21759E-04   -0.78059E-05  2339   0.173E-02    0.812E-02
RMM:   7    -0.125424109455E+04   -0.37474E-04   -0.79076E-05  2220   0.179E-02    0.113E-01
RMM:   8    -0.125424109581E+04   -0.12595E-05   -0.68705E-05  2212   0.166E-02    0.755E-02
RMM:   9    -0.125424109839E+04   -0.25791E-05   -0.36115E-05  1929   0.132E-02    0.530E-02
RMM:  10    -0.125424110094E+04   -0.25471E-05   -0.13957E-05  1644   0.799E-03    0.344E-02
RMM:  11    -0.125424110355E+04   -0.26104E-05   -0.55107E-06  1502   0.563E-03    0.214E-02
RMM:  12    -0.125424110637E+04   -0.28194E-05   -0.22135E-06  1360   0.348E-03    0.151E-02
RMM:  13    -0.125424110839E+04   -0.20250E-05   -0.90444E-07  1259   0.226E-03    0.123E-02
RMM:  14    -0.125424110963E+04   -0.12407E-05   -0.62459E-07  1218   0.189E-03    0.117E-02
RMM:  15    -0.125424111105E+04   -0.14175E-05   -0.86689E-07  1258   0.214E-03    0.143E-02
RMM:  16    -0.125424111291E+04   -0.18531E-05   -0.96074E-07  1262   0.230E-03    0.129E-02
RMM:  17    -0.125424111559E+04   -0.26883E-05   -0.67640E-07  1232   0.198E-03    0.777E-03
RMM:  18    -0.125424111785E+04   -0.22537E-05   -0.40731E-07  1162   0.158E-03    0.626E-03
RMM:  19    -0.125424111899E+04   -0.11385E-05   -0.23842E-07  1100   0.117E-03    0.618E-03
RMM:  20    -0.125424111979E+04   -0.80458E-06   -0.13664E-07  1052   0.915E-04
 203 F= -.12629338E+04 E0= -.12629267E+04  d E =-.658927E-03  mag=    10.1909
       N       E                     dE             d eps       ncg     rms          rms(c)
DAV:   1    -0.125424105183E+04    0.67151E-04   -0.13829E-01  2112   0.769E-01    0.115E-01
RMM:   2    -0.125424134011E+04   -0.28827E-03   -0.35569E-03  2420   0.110E-01    0.837E-02
RMM:   3    -0.125424149168E+04   -0.15157E-03   -0.44942E-04  2328   0.508E-02    0.222E-01
RMM:   4    -0.125424136446E+04    0.12722E-03   -0.17560E-04  2559   0.275E-02    0.953E-02
RMM:   5    -0.125424139415E+04   -0.29687E-04   -0.48678E-05  2021   0.147E-02    0.706E-02
RMM:   6    -0.125424139423E+04   -0.86984E-07   -0.21061E-05  1854   0.978E-03    0.419E-02
RMM:   7    -0.125424139881E+04   -0.45724E-05   -0.16358E-05  1799   0.897E-03    0.364E-02
RMM:   8    -0.125424141030E+04   -0.11491E-04   -0.17749E-05  1866   0.869E-03    0.543E-02
RMM:   9    -0.125424140236E+04    0.79389E-05   -0.96936E-06  1583   0.703E-03    0.173E-02
RMM:  10    -0.125424140575E+04   -0.33888E-05   -0.30798E-06  1409   0.418E-03    0.151E-02
RMM:  11    -0.125424140611E+04   -0.36608E-06   -0.12130E-06  1291   0.285E-03
 204 F= -.12629342E+04 E0= -.12629271E+04  d E =-.457090E-03  mag=    10.1921
       N       E                     dE             d eps       ncg     rms          rms(c)
DAV:   1    -0.125424124815E+04    0.15760E-03   -0.49581E-02  2240   0.461E-01    0.698E-02
RMM:   2    -0.125424134753E+04   -0.99378E-04   -0.12841E-03  2433   0.659E-02    0.533E-02
RMM:   3    -0.125424140459E+04   -0.57066E-04   -0.16659E-04  2318   0.307E-02    0.130E-01
RMM:   4    -0.125424135571E+04    0.48884E-04   -0.64442E-05  2311   0.169E-02    0.547E-02
RMM:   5    -0.125424136848E+04   -0.12772E-04   -0.17162E-05  1780   0.881E-03    0.474E-02
RMM:   6    -0.125424136724E+04    0.12403E-05   -0.78570E-06  1601   0.633E-03    0.256E-02
RMM:   7    -0.125424137025E+04   -0.30029E-05   -0.67669E-06  1557   0.608E-03    0.267E-02
RMM:   8    -0.125424137381E+04   -0.35608E-05   -0.67299E-06  1481   0.539E-03    0.320E-02
RMM:   9    -0.125424137246E+04    0.13425E-05   -0.36533E-06  1450   0.484E-03    0.980E-03
RMM:  10    -0.125424137411E+04   -0.16487E-05   -0.10308E-06  1246   0.246E-03    0.977E-03
RMM:  11    -0.125424137489E+04   -0.78076E-06   -0.61094E-07  1222   0.197E-03
