       N       E                     dE             d eps       ncg     rms          rms(c)
DAV:   1     0.890634229623E+04    0.89063E+04   -0.35369E+05  2104   0.137E+03
DAV:   2     0.812690776607E+03   -0.80937E+04   -0.73132E+04  2488   0.425E+02
DAV:   3    -0.128239350143E+04   -0.20951E+04   -0.19805E+04  3488   0.215E+02
DAV:   4    -0.144654614571E+04   -0.16415E+03   -0.15266E+03  3232   0.674E+01
DAV:   5    -0.145589948845E+04   -0.93533E+01   -0.85878E+01  3504   0.152E+01    0.161E+02
RMM:   6    -0.198626852105E+04   -0.53037E+03   -0.35999E+03  2881   0.136E+02    0.539E+02
RMM:   7    -0.175595097901E+04    0.23032E+03   -0.26411E+02  2114   0.461E+01    0.336E+02
RMM:   8    -0.129492056487E+04    0.46103E+03   -0.56652E+02  2304   0.485E+01    0.118E+02
RMM:   9    -0.139049137168E+04   -0.95571E+02   -0.15973E+02  2351   0.244E+01    0.164E+02
RMM:  10    -0.148171607780E+04   -0.91225E+02   -0.65179E+01  2316   0.178E+01    0.183E+02
RMM:  11    -0.134223371121E+04    0.13948E+03   -0.54889E+01  2185   0.157E+01    0.125E+02
RMM:  12    -0.141039038350E+04   -0.68157E+02   -0.63990E+01  2182   0.175E+01    0.139E+02
RMM:  13    -0.141114715624E+04   -0.75677E+00   -0.85181E+01  2153   0.202E+01    0.148E+02
RMM:  14    -0.127293304197E+04    0.13821E+03   -0.50823E+01  2335   0.141E+01    0.113E+02
RMM:  15    -0.125053309642E+04    0.22400E+02   -0.34482E+01  2310   0.108E+01    0.111E+02
RMM:  16    -0.124134810232E+04    0.91850E+01   -0.25754E+01  2297   0.926E+00    0.982E+01
RMM:  17    -0.122422199879E+04    0.17126E+02   -0.18666E+01  2271   0.878E+00    0.747E+01
