Co–organic framework                  
           1
    25.937074    0.000209   -0.022055
    12.968512   22.428797   -0.004705
    -0.005823    0.001939    6.852453
   O    C    H    Co   Li
  58  74  18  18   2
Direct configuration=     1
   0.06199520  0.25332258  0.30458845
   0.03848105  0.29838637  0.94537129
   0.10641863  0.25820948  0.71007044
   0.39402203  0.58648946  0.64103301
   0.69024646  0.06157805  0.30755911
   0.66660802  0.03748663  0.95332527
   0.64024795  0.10474388  0.71408909
   0.02350048  0.39312586  0.63867101
   0.25538060  0.68880177  0.30607061
   0.30039546  0.66713447  0.94739087
   0.25957732  0.64015061  0.71133000
   0.58889824  0.02354652  0.64256041
   0.30102838  0.03423928  0.35513202
   0.23292847  0.07481505  0.59091546
   0.62864346  0.35932464  0.68861232
   0.56386717  0.40945791  0.92695299
   0.27845349  0.08114012  0.99916413
   0.68288781  0.29516854  0.34282082
   0.69600360  0.23211172  0.58846884
   0.00463878  0.63166416  0.69006410
   0.03206818  0.56344928  0.92597958
   0.64392968  0.27737359  0.99699220
   0.03674243  0.66863326  0.35724684
   0.07754803  0.69622045  0.59252486
   0.37000575  0.00343773  0.68798452
   0.41143005  0.02923182  0.92691573
   0.08221015  0.64631776  0.00043290
   0.70443688  0.96728271  0.61961957
   0.77294148  0.92689409  0.38509697
   0.37117109  0.63254004  0.28221026
   0.43834992  0.59006042  0.04531125
   0.72847016  0.92192138  0.97728089
   0.33583654  0.70280509  0.61418637
   0.30822444  0.77073034  0.37798275
   0.00231889  0.36960098  0.27997792
   0.97536350  0.43727593  0.04341662
   0.35671880  0.72674512  0.97299969
   0.96851889  0.33165553  0.61327776
   0.92520223  0.30906106  0.37256026
   0.63563907  0.99969260  0.28595297
   0.59562314  0.97126597  0.05061543
   0.92224754  0.35563350  0.96939512
   0.94308165  0.74805102  0.66962214
   0.96646041  0.70089260  0.02314279
   0.89962505  0.74274140  0.26252572
   0.60597988  0.40941054  0.33020448
   0.31574959  0.94184722  0.66567691
   0.33822524  0.96513214  0.02213788
   0.36526868  0.89696526  0.25818512
   0.98020790  0.60935635  0.33359612
   0.74934376  0.31278928  0.66454693
   0.69731753  0.34770382  0.00939086
   0.74253834  0.36607846  0.25544425
   0.41718931  0.97937691  0.33409735
   0.68037289  0.44054508  0.60161214
   0.61106766  0.53779128  0.59453031
   0.68622860  0.50060557  0.37117439
   0.81833369  0.17393160  0.98163467
   0.11399289  0.21212406  0.22530480
   0.15545752  0.16671862  0.34603227
   0.08994025  0.25818765  0.88439876
   0.12952483  0.21181780  0.02493310
   0.44454121  0.54366905  0.56013185
   0.48519920  0.49693066  0.67900999
   0.67888692  0.11354371  0.22744097
   0.68372362  0.15492656  0.34627167
   0.65623692  0.08833049  0.88952261
   0.66296516  0.12863245  0.02707594
   0.01309095  0.44507936  0.55964547
   0.01723223  0.48631802  0.68067841
   0.21407822  0.67827993  0.22679207
   0.16887142  0.68213703  0.34764721
   0.25991027  0.65637971  0.88595505
   0.21346853  0.66340130  0.02600017
   0.54801724  0.01242664  0.56288751
   0.50247814  0.01653373  0.68277214
   0.25010174  0.07486181  0.41681268
   0.21068827  0.12207009  0.27820413
   0.57954070  0.40335102  0.74782159
   0.53945359  0.45076243  0.60869267
   0.22633952  0.12199902  0.07809345
   0.18482481  0.16736418  0.95733267
   0.68420899  0.24838634  0.41228449
   0.67330212  0.20985391  0.27652682
   0.01484605  0.58071557  0.75171530
   0.00690982  0.54148596  0.61281378
   0.65597738  0.22545807  0.07765282
   0.65172583  0.18385878  0.95792061
   0.07728919  0.67933309  0.41831140
   0.12402938  0.67199756  0.27925527
   0.41081630  0.01325690  0.75156655
   0.45790188  0.00604223  0.61382141
   0.12349215  0.65698118  0.07863299
   0.16870455  0.65315565  0.95772748
   0.75574619  0.92684844  0.55888344
   0.79519197  0.87982290  0.69771152
   0.42141930  0.59073964  0.21957302
   0.45943264  0.54291062  0.35875778
   0.78007551  0.88024550  0.89874404
   0.82154880  0.83451605  0.01895282
   0.32481369  0.75415446  0.55240692
   0.33189678  0.79371692  0.69223290
   0.99141963  0.42096328  0.21834398
   0.99811571  0.46056428  0.35899196
   0.34660186  0.77841374  0.89330271
   0.35069184  0.81978631  0.01393145
   0.92684375  0.32330048  0.54884897
   0.88003200  0.33083358  0.68856097
   0.59527307  0.98893873  0.22440745
   0.54806481  0.99690440  0.36238697
   0.88077368  0.34570489  0.88900285
   0.83505982  0.35019894  0.00887084
   0.89127930  0.78923586  0.74887141
   0.84987383  0.83477639  0.62849078
   0.91607623  0.74202960  0.08720498
   0.87625172  0.78946006  0.94964089
   0.55387866  0.45062265  0.40798795
   0.51306377  0.49663833  0.28857503
   0.32605390  0.88999732  0.74417081
   0.32195736  0.84860160  0.62349013
   0.34853079  0.91401179  0.08377130
   0.34092218  0.87461631  0.94499935
   0.99139759  0.55722182  0.41248456
   0.98752082  0.51580323  0.29135542
   0.78967196  0.32443569  0.74177389
   0.83528334  0.32021170  0.62108597
   0.74097240  0.35165695  0.07880989
   0.78969975  0.34078768  0.94183150
   0.45797821  0.99068523  0.41347733
   0.50337769  0.98661396  0.29334073
   0.65726996  0.49705441  0.51297273
   0.77506203  0.21294965  0.91822099
   0.14394008  0.16634981  0.49874961
   0.47384571  0.49709486  0.83229443
   0.69678549  0.14318172  0.49835223
   0.02899823  0.47470668  0.83359626
   0.16900425  0.69348553  0.50079262
   0.50210517  0.02840475  0.83564960
   0.19632159  0.16772520  0.80455405
   0.63952537  0.19540942  0.80517019
   0.16867099  0.64180127  0.80451858
   0.81036071  0.83439490  0.17218552
   0.36203823  0.80843104  0.16721234
   0.83636474  0.36087493  0.16208652
   0.86113449  0.83492975  0.47535056
   0.52387452  0.49654702  0.13509042
   0.31062901  0.85987045  0.47013283
   0.97581139  0.52735296  0.13834097
   0.83664742  0.30615895  0.46998739
   0.50378090  0.97465316  0.14055052
   0.31461621  0.64348161  0.51108059
   0.04794347  0.31319184  0.50882816
   0.64486690  0.04824023  0.50989285
   0.02439045  0.69272773  0.79381595
   0.35910974  0.02511849  0.13033722
   0.28918274  0.02290665  0.79533775
   0.62298707  0.35360503  0.11951207
   0.70878927  0.27570110  0.81111999
   0.02767867  0.61988735  0.13016767
   0.64711654  0.97605811  0.84646599
   0.98255039  0.30972451  0.17410918
   0.38068630  0.64682242  0.84469756
   0.71634254  0.98030896  0.18361424
   0.97870404  0.37863775  0.84247413
   0.31145039  0.71243495  0.17661866
   0.68227923  0.36797924  0.48479891
   0.95585243  0.68990274  0.46593793
   0.36207198  0.95329813  0.45985616
   0.74859824  0.42364005  0.40933893
   0.62000294  0.48625034  0.79667574
Co–organic framework                  
           1
    26.077959    0.062784   -0.023577
    13.093061   22.684617   -0.009055
    -0.006185    0.000825    6.931208
   O    C    H    Co   Li
  58  74  18  18   2
Direct configuration=     2
   0.06210312  0.25327440  0.30472009
   0.03850797  0.29837620  0.94545794
   0.10646091  0.25818516  0.70980276
   0.39435661  0.58573666  0.63954344
   0.69036627  0.06146595  0.30788592
   0.66673386  0.03766940  0.95402779
   0.64042365  0.10456518  0.71479112
   0.02351071  0.39317004  0.63848616
   0.25560693  0.68886587  0.30624163
   0.30048554  0.66717398  0.94752872
   0.25958249  0.64008071  0.71078530
   0.58833575  0.02384411  0.64160937
   0.30101571  0.03421743  0.35474493
   0.23258741  0.07518470  0.58945961
   0.62826545  0.35961498  0.68893162
   0.56403289  0.40939348  0.92757884
   0.27828485  0.08133179  0.00051468
   0.68259481  0.29557885  0.34240532
   0.69578980  0.23221570  0.58747856
   0.00457521  0.63199711  0.68952122
   0.03208177  0.56337011  0.92690284
   0.64376068  0.27761039  0.99667436
   0.03661555  0.66823460  0.35674961
   0.07745048  0.69624926  0.59310309
   0.37034522  0.00331961  0.68732003
   0.41149565  0.02929589  0.92641558
   0.08102970  0.64597986 -0.00193926
   0.70409286  0.96744991  0.62067324
   0.77279831  0.92686397  0.38596861
   0.37140001  0.63215533  0.28237883
   0.43796058  0.59021062  0.04519836
   0.72808921  0.92225742  0.97941885
   0.33597418  0.70245387  0.61545124
   0.30807285  0.77113802  0.37850700
   0.00232237  0.36969581  0.28014411
   0.97534079  0.43733858  0.04323321
   0.35694648  0.72687329  0.97331284
   0.96853288  0.33169087  0.61340848
   0.92506117  0.30910287  0.37285244
   0.63580947  0.99964903  0.28626740
   0.59561692  0.97147634  0.05065207
   0.92200706  0.35564710  0.96933888
   0.94299364  0.74795012  0.66987333
   0.96707416  0.70047223  0.02286117
   0.89957051  0.74290733  0.26257196
   0.60519723  0.40965370  0.33031718
   0.31557066  0.94213503  0.66522486
   0.33826139  0.96472124  0.02267091
   0.36534129  0.89691209  0.25845836
   0.97991671  0.60941034  0.33149872
   0.74977024  0.31302348  0.66490228
   0.69693746  0.34779197  0.00895638
   0.74263972  0.36605989  0.25521739
   0.41751532  0.97923720  0.33498704
   0.68039594  0.44065818  0.60160862
   0.61101934  0.53775448  0.59496923
   0.68623461  0.50056557  0.37095884
   0.81804858  0.17418922  0.98130758
   0.11368768  0.21240575  0.22531079
   0.15572628  0.16643001  0.34647872
   0.08988389  0.25826065  0.88431398
   0.12959770  0.21179862  0.02456436
   0.44400814  0.54409269  0.56144468
   0.48532016  0.49683754  0.67883736
   0.67885219  0.11362409  0.22737495
   0.68365293  0.15491788  0.34608438
   0.65608805  0.08844993  0.88978249
   0.66295284  0.12850359  0.02737470
   0.01312710  0.44488153  0.55988916
   0.01716747  0.48643069  0.68080080
   0.21408690  0.67814189  0.22689821
   0.16877878  0.68205890  0.34798084
   0.25999425  0.65639506  0.88456529
   0.21322015  0.66353733  0.02593201
   0.54814602  0.01256862  0.56456209
   0.50248085  0.01662407  0.68202217
   0.24980632  0.07503073  0.41745448
   0.21058828  0.12221808  0.27822762
   0.57979511  0.40311531  0.74711808
   0.53936472  0.45087323  0.60889471
   0.22629683  0.12218580  0.07851157
   0.18463250  0.16754872  0.95714480
   0.68427060  0.24828933  0.41311231
   0.67327443  0.20988062  0.27580841
   0.01498288  0.58073834  0.75299995
   0.00701375  0.54146689  0.61362591
   0.65602047  0.22526911  0.07788096
   0.65169037  0.18411129  0.95808329
   0.07739396  0.67910942  0.41744323
   0.12406052  0.67205063  0.27977289
   0.41094667  0.01327763  0.75171873
   0.45791204  0.00603538  0.61346466
   0.12324494  0.65696400  0.08073378
   0.16884266  0.65310640  0.95706085
   0.75590979  0.92670600  0.55904783
   0.79512199  0.87985607  0.69786162
   0.42150118  0.59065767  0.21948124
   0.45955825  0.54287569  0.35852559
   0.77994875  0.88042120  0.89790175
   0.82149624  0.83459981  0.01895664
   0.32486534  0.75412430  0.55294500
   0.33189792  0.79369479  0.69242914
   0.99143835  0.42086726  0.21834930
   0.99810951  0.46064205  0.35871191
   0.34667121  0.77809725  0.89308618
   0.35071634  0.81987124  0.01405248
   0.92690679  0.32329150  0.54855855
   0.87993728  0.33083953  0.68877291
   0.59541688  0.98883928  0.22272680
   0.54805009  0.99687639  0.36243175
   0.88085394  0.34575116  0.88912817
   0.83502530  0.35019811  0.00861184
   0.89108275  0.78946861  0.74912893
   0.84995827  0.83471445  0.62861528
   0.91592910  0.74209819  0.08795005
   0.87627387  0.78946459  0.94902345
   0.55419723  0.45049563  0.40682854
   0.51305770  0.49663217  0.28938541
   0.32622289  0.88980795  0.74423904
   0.32204883  0.84850730  0.62332930
   0.34841478  0.91408443  0.08362258
   0.34085263  0.87454889  0.94559451
   0.99141281  0.55745752  0.41055325
   0.98746072  0.51564749  0.29138843
   0.78947393  0.32439300  0.74141171
   0.83518017  0.32026227  0.62132400
   0.74112276  0.35172524  0.07936228
   0.78963995  0.34076174  0.94172104
   0.45794280  0.99064017  0.41346343
   0.50341026  0.98662486  0.29383640
   0.65712872  0.49680242  0.51391275
   0.77487974  0.21312109  0.91802977
   0.14392051  0.16636388  0.49903343
   0.47386474  0.49712805  0.83198661
   0.69675306  0.14321910  0.49828520
   0.02896044  0.47472671  0.83373966
   0.16898731  0.69348341  0.50101496
   0.50209845  0.02837609  0.83546792
   0.19628015  0.16775944  0.80432738
   0.63952702  0.19542207  0.80533258
   0.16868321  0.64179683  0.80428340
   0.81037406  0.83440290  0.17220394
   0.36201048  0.80844922  0.16720196
   0.83636790  0.36087275  0.16215344
   0.86109459  0.83492373  0.47538299
   0.52383680  0.49656438  0.13500434
   0.31061947  0.85986944  0.46996705
   0.97584328  0.52735503  0.13829009
   0.83664613  0.30619369  0.47010474
   0.50376900  0.97470143  0.14069607
   0.31465550  0.64292742  0.51173580
   0.04793290  0.31315104  0.50882871
   0.64439848  0.04797449  0.50979665
   0.02423350  0.69274808  0.79344833
   0.35872917  0.02523599  0.12858293
   0.29045607  0.02232174  0.79510446
   0.62325599  0.35340064  0.12065360
   0.70908189  0.27567383  0.81236341
   0.02811212  0.62166038  0.13474501
   0.64836041  0.97467900  0.84222788
   0.98261171  0.30977868  0.17370460
   0.38157924  0.64687412  0.84159569
   0.71581289  0.98079862  0.18246391
   0.97858634  0.37869654  0.84249511
   0.31170726  0.71218096  0.17852851
   0.68271429  0.36754974  0.48493177
   0.95659841  0.68929874  0.46434182
   0.36210400  0.95303430  0.46022725
   0.74853941  0.42361917  0.40935220
   0.62011723  0.48622264  0.79601335
Co–organic framework                  
           1
    25.991660    0.024454   -0.022644
    13.016769   22.527915   -0.006390
    -0.005963    0.001507    6.882967
   O    C    H    Co   Li
  58  74  18  18   2
Direct configuration=     3
   0.06203731  0.25330375  0.30464038
   0.03849155  0.29838240  0.94540546
   0.10643512  0.25819997  0.70996487
   0.39415289  0.58619319  0.64044575
   0.69029324  0.06153403  0.30768803
   0.66665699  0.03755890  0.95360227
   0.64031656  0.10467368  0.71436603
   0.02350444  0.39314330  0.63859808
   0.25546882  0.68882743  0.30613801
   0.30043056  0.66715020  0.94744521
   0.25957937  0.64012307  0.71111519
   0.58867875  0.02366296  0.64218527
   0.30102345  0.03423066  0.35497936
   0.23279527  0.07496030  0.59034116
   0.62849591  0.35943849  0.68873819
   0.56393182  0.40943276  0.92719984
   0.27838764  0.08121538 -0.00030325
   0.68277333  0.29532987  0.34265682
   0.69592017  0.23215240  0.58807825
   0.00461381  0.63179538  0.68984987
   0.03207353  0.56341805  0.92634375
   0.64386366  0.27746670  0.99686677
   0.03669317  0.66847584  0.35705089
   0.07750998  0.69623163  0.59275292
   0.37013818  0.00339174  0.68772243
   0.41145559  0.02925722  0.92671843
   0.08175003  0.64618259 -0.00050244
   0.70430265  0.96734803  0.62003513
   0.77288568  0.92688195  0.38544078
   0.37126056  0.63238871  0.28227686
   0.43819803  0.59011901  0.04526672
   0.72832145  0.92205320  0.97812405
   0.33589041  0.70266678  0.61468537
   0.30816511  0.77089084  0.37818938
   0.00232020  0.36963838  0.28004344
   0.97535461  0.43730061  0.04334426
   0.35680751  0.72679604  0.97312313
   0.96852433  0.33166949  0.61332930
   0.92514721  0.30907730  0.37267550
   0.63570554  0.99967569  0.28607698
   0.59562060  0.97134892  0.05062980
   0.92215376  0.35563846  0.96937296
   0.94304739  0.74801107  0.66972127
   0.96669995  0.70072786  0.02303180
   0.89960369  0.74280675  0.26254390
   0.60567458  0.40950511  0.33024894
   0.31567966  0.94196043  0.66549853
   0.33823956  0.96497014  0.02234826
   0.36529702  0.89694440  0.25829290
   0.98009432  0.60937721  0.33276890
   0.74950993  0.31288235  0.66468695
   0.69716928  0.34773796  0.00921951
   0.74257788  0.36607131  0.25535477
   0.41731651  0.97932234  0.33444827
   0.68038182  0.44058972  0.60161071
   0.61104884  0.53777667  0.59470345
   0.68623097  0.50058981  0.37108939
   0.81822238  0.17403273  0.98150560
   0.11387373  0.21223463  0.22530709
   0.15556247  0.16660524  0.34620843
   0.08991823  0.25821635  0.88436530
   0.12955325  0.21181037  0.02478766
   0.44433314  0.54383518  0.56064955
   0.48524641  0.49689414  0.67894193
   0.67887334  0.11357535  0.22741490
   0.68369606  0.15492302  0.34619781
   0.65617881  0.08837733  0.88962508
   0.66296043  0.12858160  0.02719383
   0.01310515  0.44500140  0.55974165
   0.01720692  0.48636234  0.68072665
   0.21408168  0.67822550  0.22683398
   0.16883534  0.68210605  0.34777884
   0.25994300  0.65638595  0.88540689
   0.21337161  0.66345453  0.02597327
   0.54806739  0.01248280  0.56354792
   0.50247914  0.01656938  0.68247631
   0.24998646  0.07492791  0.41706579
   0.21064921  0.12212828  0.27821335
   0.57964002  0.40325851  0.74754417
   0.53941888  0.45080597  0.60877233
   0.22632278  0.12207259  0.07825830
   0.18474972  0.16743664  0.95725853
   0.68423307  0.24834816  0.41261102
   0.67329130  0.20986442  0.27624346
   0.01489941  0.58072474  0.75222196
   0.00695036  0.54147859  0.61313409
   0.65599428  0.22538362  0.07774287
   0.65171187  0.18395830  0.95798468
   0.07733016  0.67924509  0.41796905
   0.12404149  0.67201852  0.27945940
   0.41086712  0.01326529  0.75162655
   0.45790584  0.00603955  0.61368071
   0.12339579  0.65697392  0.07946160
   0.16875843  0.65313648  0.95746455
   0.75581006  0.92679254  0.55894831
   0.79516467  0.87983586  0.69777072
   0.42145127  0.59070745  0.21953684
   0.45948164  0.54289706  0.35866620
   0.78002598  0.88031460  0.89841178
   0.82152826  0.83454899  0.01895430
   0.32483385  0.75414264  0.55261915
   0.33189724  0.79370819  0.69231031
   0.99142698  0.42092544  0.21834611
   0.99811325  0.46059495  0.35888148
   0.34662907  0.77828905  0.89321742
   0.35070135  0.81981984  0.01397915
   0.92686833  0.32329705  0.54873442
   0.87999507  0.33083576  0.68864457
   0.59532919  0.98889980  0.22374460
   0.54805909  0.99689333  0.36240464
   0.88080495  0.34572327  0.88905225
   0.83504636  0.35019856  0.00876869
   0.89120254  0.78932731  0.74897292
   0.84990679  0.83475210  0.62853989
   0.91601883  0.74205637  0.08749884
   0.87626035  0.78946190  0.94939736
   0.55400293  0.45057313  0.40753067
   0.51306141  0.49663587  0.28889466
   0.32611990  0.88992292  0.74419777
   0.32199307  0.84856457  0.62342672
   0.34848552  0.91404025  0.08371263
   0.34089510  0.87458959  0.94523412
   0.99140338  0.55731486  0.41172274
   0.98749747  0.51574171  0.29136851
   0.78959477  0.32441853  0.74163109
   0.83524309  0.32023146  0.62117985
   0.74103099  0.35168412  0.07902772
   0.78967645  0.34077735  0.94178795
   0.45796443  0.99066740  0.41347187
   0.50339039  0.98661830  0.29353622
   0.65721503  0.49695477  0.51334360
   0.77499086  0.21301696  0.91814553
   0.14393244  0.16635532  0.49886155
   0.47385311  0.49710799  0.83217300
   0.69677282  0.14319641  0.49832578
   0.02898349  0.47471451  0.83365282
   0.16899765  0.69348466  0.50088032
   0.50210256  0.02839344  0.83557795
   0.19630541  0.16773864  0.80446464
   0.63952601  0.19541441  0.80523423
   0.16867575  0.64179955  0.80442582
   0.81036591  0.83439808  0.17219278
   0.36202740  0.80843816  0.16720824
   0.83636598  0.36087407  0.16211291
   0.86111894  0.83492730  0.47536336
   0.52385980  0.49655380  0.13505647
   0.31062529  0.85987004  0.47006745
   0.97582382  0.52735383  0.13832090
   0.83664690  0.30617265  0.47003366
   0.50377623  0.97467217  0.14060791
   0.31463183  0.64326310  0.51133922
   0.04793937  0.31317574  0.50882839
   0.64468439  0.04813465  0.50985507
   0.02432924  0.69273550  0.79367097
   0.35896127  0.02516424  0.12964531
   0.28967955  0.02267813  0.79524580
   0.62309205  0.35352485  0.11996235
   0.70890339  0.27569080  0.81161039
   0.02784676  0.62058716  0.13197232
   0.64760226  0.97551646  0.84479478
   0.98257427  0.30974599  0.17394958
   0.38103441  0.64684440  0.84347401
   0.71613574  0.98050120  0.18316041
   0.97865811  0.37866074  0.84248240
   0.31155070  0.71233516  0.17737199
   0.68244910  0.36781059  0.48485142
   0.95614362  0.68966585  0.46530854
   0.36208461  0.95319413  0.46000262
   0.74857532  0.42363171  0.40934418
   0.62004751  0.48623963  0.79641448
Co–organic framework                  
           1
    25.971809    0.015637   -0.022430
    12.999220   22.491869   -0.005777
    -0.005912    0.001664    6.871869
   O    C    H    Co   Li
  58  74  18  18   2
Direct configuration=     4
   0.06202213  0.25331053  0.30462191
   0.03848776  0.29838383  0.94539331
   0.10642918  0.25820339  0.71000242
   0.39410585  0.58629886  0.64065473
   0.69027639  0.06154978  0.30764219
   0.66663928  0.03753327  0.95350371
   0.64029185  0.10469878  0.71426755
   0.02350300  0.39313711  0.63862401
   0.25543697  0.68881847  0.30611401
   0.30041789  0.66714467  0.94742587
   0.25957865  0.64013288  0.71119160
   0.58875787  0.02362113  0.64231868
   0.30102524  0.03423372  0.35503366
   0.23284324  0.07490839  0.59054538
   0.62854908  0.35939770  0.68869340
   0.56390851  0.40944182  0.92711204
   0.27841136  0.08118847 -0.00049271
   0.68281454  0.29527227  0.34271510
   0.69595025  0.23213778  0.58821716
   0.00462273  0.63174866  0.68992601
   0.03207162  0.56342916  0.92621424
   0.64388742  0.27743346  0.99691135
   0.03671104  0.66853175  0.35712066
   0.07752370  0.69622757  0.59267181
   0.37009042  0.00340836  0.68781565
   0.41144636  0.02924824  0.92678859
   0.08191612  0.64622982 -0.00016964
   0.70435105  0.96732452  0.61988732
   0.77290582  0.92688615  0.38531851
   0.37122838  0.63244271  0.28225323
   0.43825280  0.59009788  0.04528255
   0.72837503  0.92200599  0.97782413
   0.33587106  0.70271607  0.61450794
   0.30818642  0.77083363  0.37811583
   0.00231970  0.36962508  0.28002012
   0.97535780  0.43729181  0.04336998
   0.35677547  0.72677809  0.97307919
   0.96852236  0.33166453  0.61331096
   0.92516705  0.30907142  0.37263451
   0.63568157  0.99968183  0.28603288
   0.59562147  0.97131941  0.05062466
   0.92218760  0.35563652  0.96938085
   0.94305978  0.74802521  0.66968603
   0.96661363  0.70078693  0.02307131
   0.89961136  0.74278346  0.26253741
   0.60578467  0.40947088  0.33023313
   0.31570482  0.94192003  0.66556193
   0.33823450  0.96502779  0.02227350
   0.36528681  0.89695187  0.25825457
   0.98013528  0.60936960  0.33306312
   0.74944992  0.31284956  0.66463708
   0.69722275  0.34772553  0.00928046
   0.74256361  0.36607394  0.25538659
   0.41727065  0.97934198  0.33432346
   0.68037857  0.44057386  0.60161120
   0.61105564  0.53778183  0.59464188
   0.68623012  0.50059543  0.37111963
   0.81826247  0.17399655  0.98155148
   0.11391665  0.21219507  0.22530625
   0.15552468  0.16664577  0.34614581
   0.08992616  0.25820610  0.88437719
   0.12954300  0.21181307  0.02483939
   0.44440811  0.54377566  0.56046538
   0.48522940  0.49690722  0.67896614
   0.67887822  0.11356407  0.22742416
   0.68370601  0.15492423  0.34622409
   0.65619975  0.08836055  0.88958862
   0.66296217  0.12859968  0.02715192
   0.01310008  0.44502916  0.55970747
   0.01721602  0.48634652  0.68070948
   0.21408046  0.67824487  0.22681910
   0.16884838  0.68211700  0.34773204
   0.25993118  0.65638381  0.88560185
   0.21340655  0.66343541  0.02598283
   0.54804927  0.01246290  0.56331300
   0.50247876  0.01655671  0.68258151
   0.25002801  0.07490416  0.41697575
   0.21066327  0.12210751  0.27821006
   0.57960424  0.40329162  0.74764287
   0.53943137  0.45079041  0.60874398
   0.22632877  0.12204638  0.07819964
   0.18477677  0.16741072  0.95728488
   0.68422441  0.24836178  0.41249490
   0.67329520  0.20986067  0.27634424
   0.01488015  0.58072156  0.75204174
   0.00693574  0.54148128  0.61302016
   0.65598823  0.22541013  0.07771087
   0.65171684  0.18392287  0.95796185
   0.07731543  0.67927648  0.41809085
   0.12403711  0.67201108  0.27938679
   0.41084878  0.01326240  0.75160520
   0.45790441  0.00604052  0.61373075
   0.12343057  0.65697629  0.07916690
   0.16873900  0.65314341  0.95755807
   0.75578705  0.92681255  0.55892526
   0.79517451  0.87983120  0.69774966
   0.42143976  0.59071897  0.21954972
   0.45946397  0.54290198  0.35869877
   0.78004381  0.88028993  0.89852993
   0.82153565  0.83453723  0.01895376
   0.32482659  0.75414688  0.55254367
   0.33189708  0.79371129  0.69228278
   0.99142435  0.42093892  0.21834537
   0.99811412  0.46058404  0.35892076
   0.34661933  0.77833346  0.89324780
   0.35069790  0.81980793  0.01396217
   0.92685947  0.32329832  0.54877516
   0.88000839  0.33083491  0.68861484
   0.59530896  0.98891378  0.22398037
   0.54806116  0.99689726  0.36239836
   0.88079366  0.34571679  0.88903467
   0.83505121  0.35019868  0.00880502
   0.89123018  0.78929463  0.74893679
   0.84989491  0.83476080  0.62852243
   0.91603952  0.74204673  0.08739432
   0.87625723  0.78946127  0.94948397
   0.55395812  0.45059100  0.40769332
   0.51306227  0.49663673  0.28878098
   0.32609613  0.88994951  0.74418821
   0.32198021  0.84857782  0.62344928
   0.34850183  0.91403004  0.08373349
   0.34090489  0.87459903  0.94515064
   0.99140123  0.55728180  0.41199366
   0.98750594  0.51576355  0.29136388
   0.78962263  0.32442449  0.74168190
   0.83525760  0.32022435  0.62114646
   0.74100984  0.35167456  0.07895022
   0.78968486  0.34078098  0.94180345
   0.45796941  0.99067372  0.41347382
   0.50338581  0.98661677  0.29346669
   0.65723491  0.49699010  0.51321174
   0.77501649  0.21299288  0.91817235
   0.14393520  0.16635334  0.49882173
   0.47385043  0.49710334  0.83221618
   0.69677738  0.14319116  0.49833519
   0.02898880  0.47471169  0.83363270
   0.16900003  0.69348495  0.50084913
   0.50210351  0.02839746  0.83560344
   0.19631124  0.16773383  0.80449644
   0.63952578  0.19541263  0.80521145
   0.16867403  0.64180017  0.80445881
   0.81036403  0.83439696  0.17219019
   0.36203130  0.80843561  0.16720970
   0.83636553  0.36087438  0.16210353
   0.86112455  0.83492814  0.47535881
   0.52386511  0.49655136  0.13506854
   0.31062663  0.85987018  0.47009070
   0.97581934  0.52735354  0.13832804
   0.83664708  0.30616777  0.47001720
   0.50377791  0.97466540  0.14058749
   0.31462633  0.64334085  0.51124732
   0.04794086  0.31318146  0.50882832
   0.64475031  0.04817185  0.50986858
   0.02435132  0.69273262  0.79372254
   0.35901481  0.02514770  0.12989140
   0.28950044  0.02276038  0.79527853
   0.62305422  0.35355356  0.11980222
   0.70886223  0.27569466  0.81143596
   0.02778569  0.62033848  0.13133013
   0.64742733  0.97571013  0.84538935
   0.98256564  0.30973840  0.17400633
   0.38090879  0.64683729  0.84390914
   0.71621023  0.98043243  0.18332177
   0.97867467  0.37865247  0.84247946
   0.31151458  0.71237083  0.17710408
   0.68238792  0.36787091  0.48483279
   0.95603870  0.68975070  0.46553246
   0.36208012  0.95323114  0.45995057
   0.74858360  0.42363463  0.40934232
   0.62003143  0.48624354  0.79650740
Co–organic framework                  
           1
    25.947029    0.004630   -0.022162
    12.977313   22.446873   -0.005012
    -0.005848    0.001860    6.858017
   O    C    H    Co   Li
  58  74  18  18   2
Direct configuration=     5
   0.06200317  0.25331899  0.30459882
   0.03848303  0.29838562  0.94537811
   0.10642175  0.25820766  0.71004937
   0.39404709  0.58643094  0.64091600
   0.69025534  0.06156945  0.30758487
   0.66661716  0.03750123  0.95338049
   0.64026099  0.10473014  0.71414443
   0.02350120  0.39312936  0.63865643
   0.25539720  0.68880725  0.30608401
   0.30040206  0.66713775  0.94740169
   0.25957774  0.64014514  0.71128714
   0.58885669  0.02356887  0.64248548
   0.30102746  0.03423755  0.35510156
   0.23290315  0.07484352  0.59080071
   0.62861549  0.35934673  0.68863739
   0.56387940  0.40945314  0.92700228
   0.27844098  0.08115483 -0.00072959
   0.68286600  0.29520027  0.34278796
   0.69598781  0.23211952  0.58839085
   0.00463389  0.63169025  0.69002122
   0.03206924  0.56344304  0.92605231
   0.64391711  0.27739191  0.99696709
   0.03673335  0.66860166  0.35720788
   0.07754084  0.69622251  0.59257039
   0.37003078  0.00342912  0.68793220
   0.41143482  0.02923701  0.92687631
   0.08212355  0.64628895  0.00024643
   0.70441149  0.96729515  0.61970251
   0.77293098  0.92689141  0.38516564
   0.37118817  0.63251021  0.28222367
   0.43832120  0.59007149  0.04530235
   0.72844196  0.92194700  0.97744914
   0.33584689  0.70277768  0.61428610
   0.30821304  0.77076210  0.37802387
   0.00231909  0.36960844  0.27999097
   0.97536179  0.43728082  0.04340215
   0.35673546  0.72675564  0.97302426
   0.96851990  0.33165833  0.61328804
   0.92519183  0.30906407  0.37258326
   0.63565163  0.99968949  0.28597773
   0.59562255  0.97128251  0.05061823
   0.92222985  0.35563410  0.96939072
   0.94307524  0.74804290  0.66964198
   0.96650580  0.70086074  0.02312071
   0.89962093  0.74275435  0.26252930
   0.60592218  0.40942814  0.33021336
   0.31573625  0.94186953  0.66564121
   0.33822817  0.96509986  0.02218002
   0.36527406  0.89696120  0.25820665
   0.98018644  0.60936010  0.33343099
   0.74937497  0.31280853  0.66457475
   0.69728953  0.34771003  0.00935667
   0.74254580  0.36607720  0.25542638
   0.41721338  0.97936652  0.33416742
   0.68037452  0.44055402  0.60161181
   0.61106413  0.53778828  0.59456490
   0.68622907  0.50060244  0.37115744
   0.81831256  0.17395133  0.98160885
   0.11397027  0.21214563  0.22530519
   0.15547747  0.16669642  0.34606751
   0.08993606  0.25819329  0.88439206
   0.12953020  0.21181645  0.02490406
   0.44450176  0.54370129  0.56023511
   0.48520815  0.49692357  0.67899642
   0.67888432  0.11354997  0.22743574
   0.68371843  0.15492574  0.34625694
   0.65622591  0.08833958  0.88954304
   0.66296434  0.12862227  0.02709952
   0.01309373  0.44506386  0.55966474
   0.01722740  0.48632676  0.68068801
   0.21407894  0.67826908  0.22680048
   0.16886466  0.68213069  0.34767353
   0.25991642  0.65638113  0.88584560
   0.21345018  0.66341152  0.02599478
   0.54802663  0.01243801  0.56301929
   0.50247828  0.01654087  0.68271305
   0.25007992  0.07487450  0.41686319