Co–organic framework                  
           1
    25.924592   -0.123541   -0.038838
    12.854898   22.274612   -0.032727
    -0.010378   -0.003971    6.803183
   O    C    H    Co   Li
  58  74  18  18   2
Direct configuration=     1
   0.06245660  0.25270586  0.30948413
   0.03787452  0.29679024  0.94292114
   0.10753994  0.25864784  0.71226939
   0.39098107  0.58337220  0.63375859
   0.69022932  0.06171215  0.30451755
   0.67174983  0.03592569  0.93885417
   0.63950131  0.10604877  0.70711134
   0.02656605  0.39409532  0.64416470
   0.25341305  0.68809171  0.29646816
   0.29997472  0.66384663  0.93960229
   0.25900987  0.63630941  0.70106598
   0.58905450  0.02256239  0.63803862
   0.30108964  0.03380790  0.35820660
   0.23344757  0.07474672  0.59663331
   0.62854799  0.36095514  0.68896759
   0.56397815  0.41174859  0.92758907
   0.27798060  0.08130465  0.00183002
   0.68342003  0.29671471  0.34339893
   0.69621072  0.23319748  0.59019547
   0.98680814  0.64253582  0.71281971
   0.02682817  0.57050884  0.93735693
   0.64285993  0.27973584  0.99718948
   0.04368066  0.65360992  0.37502220
   0.08069379  0.69032443  0.59244429
   0.37148742  0.00027198  0.69208525
   0.41136014  0.03021686  0.92638898
   0.08371041  0.63812862  0.99415593
   0.70355949  0.96440333  0.60601519
   0.77279299  0.92684413  0.37347183
   0.36921270  0.63152383  0.27458172
   0.43779244  0.59051325  0.03967654
   0.72886530  0.91969818  0.97123223
   0.33492005  0.70046600  0.60743112
   0.30529711  0.77046135  0.37450578
   0.00814230  0.36821058  0.27725543
   0.97677773  0.43829401  0.04583883
   0.35675137  0.72389693  0.96821390
   0.96720054  0.33671802  0.60961455
   0.92693339  0.30777822  0.37460601
   0.63254107  0.00327749  0.27255000
   0.59430909  0.97136071  0.04029745
   0.92320492  0.35691342  0.97409966
   0.94665382  0.75371856  0.66269578
   0.97446704  0.71159404  0.04255702
   0.90143823  0.74621694  0.26097048
   0.60714974  0.41261613  0.33038640
   0.31337878  0.94173142  0.66547266
   0.33786162  0.96422436  0.02508405
   0.36703981  0.89471453  0.25942607
   0.97564891  0.61332986  0.32798093
   0.75072053  0.31245854  0.66744121
   0.69719150  0.35097958  0.01047480
   0.74212741  0.37027149  0.25840553
   0.41671784  0.97791513  0.33207103
   0.68403039  0.44002386  0.61789424
   0.60875192  0.53392429  0.65440111
   0.66819710  0.50906926  0.38289283
   0.81656719  0.17474937  0.99526775
   0.11408221  0.21155508  0.22961486
   0.15545385  0.16586997  0.35080945
   0.09021558  0.25781405  0.88600536
   0.12962063  0.21166292  0.02792093
   0.44265458  0.54214901  0.55404753
   0.48356631  0.49591741  0.67454224
   0.67895772  0.11403470  0.22495035
   0.68389961  0.15563217  0.34536451
   0.65725669  0.08901561  0.88156545
   0.66253277  0.12970525  0.02369681
   0.01524977  0.44654718  0.56458766
   0.01694680  0.48972350  0.68604928
   0.21338558  0.67530422  0.21833195
   0.16894320  0.67836170  0.34109317
   0.25983660  0.65253575  0.87745119
   0.21353893  0.65851979  0.01776714
   0.54785794  0.01175416  0.55820875
   0.50254624  0.01592625  0.67986844
   0.25032456  0.07431886  0.42078540
   0.21049271  0.12153386  0.28194218
   0.57925385  0.40509478  0.74687377
   0.53868998  0.45150250  0.60573274
   0.22602931  0.12194868  0.08083416
   0.18472842  0.16747316  0.95944489
   0.68439632  0.24972923  0.41305410
   0.67303759  0.21114840  0.27633211
   0.00647333  0.58792797  0.76464035
   0.00410946  0.54616501  0.61837625
   0.65494167  0.22735003  0.07712579
   0.65033629  0.18573650  0.95585603
   0.08165481  0.67053430  0.42066313
   0.12558055  0.66537686  0.27505023
   0.41145538  0.01229228  0.75176355
   0.45804847  0.00501656  0.61152526
   0.12518237  0.64903217  0.07426628
   0.17007804  0.64565916  0.95147805
   0.75586342  0.92594145  0.54775167
   0.79610573  0.88019085  0.68956914
   0.42000740  0.59056101  0.21404071
   0.45843815  0.54281575  0.35325524
   0.78092114  0.87963349  0.89136079
   0.82336256  0.83483219  0.01263876
   0.32317643  0.75264372  0.54880375
   0.33067737  0.79223010  0.68968148
   0.99475747  0.42099478  0.21997744
   0.00065509  0.46132003  0.36201715
   0.34661350  0.77618275  0.89071341
   0.35168162  0.81729165  0.01268202
   0.92746239  0.32439756  0.55022521
   0.88138021  0.33087474  0.69193382
   0.59362866  0.98951416  0.21453053
   0.54762543  0.99598237  0.35641809
   0.88183988  0.34656815  0.89362078
   0.83605237  0.35133630  0.01413444
   0.89433534  0.79286326  0.74341997
   0.85175884  0.83723805  0.62144429
   0.92033954  0.74759986  0.08938641
   0.87937183  0.79208739  0.94521267
   0.55410140  0.45261213  0.40582838
   0.51327571  0.49828800  0.28469116
   0.32470274  0.88909959  0.74407555
   0.32002134  0.84785674  0.62198111
   0.34907767  0.91241458  0.08488843
   0.34108203  0.87291672  0.94490126
   0.98959050  0.56081287  0.41372626
   0.98849226  0.51721826  0.29332609
   0.79120925  0.32415394  0.74514959
   0.83706282  0.31940106  0.62426081
   0.74131521  0.35420994  0.08131019
   0.79077091  0.34161582  0.94582103
   0.45794911  0.98898378  0.41017233
   0.50324529  0.98482006  0.28829632
   0.65070444  0.49877878  0.54382010
   0.77414835  0.21382747  0.92812300
   0.14403631  0.16529176  0.50458349
   0.47192430  0.49536094  0.82808308
   0.69725543  0.14363470  0.49813471
   0.02793299  0.47889395  0.84083187
   0.16854733  0.69083102  0.49455389
   0.50238607  0.02801316  0.83366936
   0.19620084  0.16807108  0.80568368
   0.63765517  0.19759294  0.80253519
   0.17064574  0.63314559  0.79799865
   0.81219733  0.83418985  0.16664892
   0.36417439  0.80537201  0.16608316
   0.83702386  0.36246503  0.16839956
   0.86289165  0.83812804  0.46755553
   0.52464728  0.49956180  0.13148821
   0.30763207  0.85974703  0.46854956
   0.97732784  0.52803820  0.13872465
   0.83822273  0.30556791  0.47174477
   0.50354378  0.97267478  0.13448710
   0.31179840  0.64110091  0.49953675
   0.04914748  0.31407255  0.51222468
   0.64444119  0.04646557  0.50616784
   0.02279932  0.69403660  0.79235955
   0.35869189  0.02562253  0.12815783
   0.29012447  0.02194082  0.79949323
   0.62310350  0.35592681  0.12137298
   0.70909975  0.27649526  0.81486031
   0.03104108  0.62147218  0.14556831
   0.64945169  0.97564462  0.84074772
   0.98397098  0.30953895  0.17748858
   0.38208254  0.64277013  0.83474203
   0.71388311  0.98169389  0.17349760
   0.98003488  0.37945042  0.84479823
   0.30906283  0.71331496  0.17114052
   0.68326659  0.36907206  0.48980859
   0.95603148  0.69196890  0.46390371
   0.36207686  0.95166968  0.46419835
   0.73811539  0.43572922  0.39733025
   0.63483129  0.47522112  0.84980640
Co–organic framework                  
           1
    26.047169   -0.113922   -0.076188
    12.924608   22.407353   -0.043496
    -0.020159   -0.001613    6.843023
   O    C    H    Co   Li
  58  74  18  18   2
Direct configuration=     2
   0.06251790  0.25263031  0.30905436
   0.03785940  0.29682246  0.94318890
   0.10751534  0.25856709  0.71287303
   0.39176890  0.58274823  0.63222231
   0.69029684  0.06137786  0.30406518
   0.67172973  0.03551911  0.93938752
   0.63956111  0.10595861  0.70730298
   0.02660275  0.39430265  0.64454154
   0.25333713  0.68834224  0.29662538
   0.30022153  0.66406064  0.93972949
   0.25894210  0.63630483  0.70122569
   0.58858276  0.02282644  0.63648772
   0.30143639  0.03351280  0.35792654
   0.23335079  0.07485318  0.59538296
   0.62832729  0.36139322  0.68868131
   0.56410666  0.41169445  0.92779315
   0.27793989  0.08144493  0.00199665
   0.68296899  0.29835321  0.34448779
   0.69619339  0.23325474  0.58884982
   0.98640382  0.64343572  0.70927506
   0.02663461  0.57079556  0.93770428
   0.64288373  0.28016547  0.99708231
   0.04357644  0.65361221  0.37488476
   0.08052147  0.69040486  0.59308279
   0.37167858  0.00024337  0.69180724
   0.41136795  0.03015550  0.92653464
   0.08369081  0.63768611  0.99394662
   0.70340854  0.96448694  0.60693923
   0.77252246  0.92719656  0.37230280
   0.36927932  0.63142349  0.27484487
   0.43823745  0.58986962  0.04127793
   0.72850324  0.91992526  0.97266701
   0.33488910  0.70061580  0.60665955
   0.30524570  0.77067452  0.37526721
   0.00802845  0.36853646  0.27712511
   0.97674465  0.43824848  0.04564147
   0.35674875  0.72459702  0.96842434
   0.96712488  0.33672333  0.60980614
   0.92683869  0.30779344  0.37461497
   0.63236185  0.00315233  0.27216696
   0.59440049  0.97154325  0.03952696
   0.92274107  0.35696116  0.97370427
   0.94703825  0.75367265  0.66104305
   0.97442151  0.71161112  0.04247680
   0.90201654  0.74578403  0.26340422
   0.60841114  0.41178922  0.32948694
   0.31346310  0.94164343  0.66501823
   0.33804706  0.96402033  0.02540022
   0.36703835  0.89473485  0.25975115
   0.97545371  0.61440764  0.32622730
   0.74989027  0.31331774  0.66463925
   0.69728225  0.35120667  0.01076719
   0.74237317  0.37013372  0.25848116
   0.41666971  0.97787186  0.33247901
   0.68438548  0.43886521  0.61700648
   0.60896147  0.53387357  0.65485533
   0.66816537  0.50902975  0.38328486
   0.81673079  0.17458841  0.99571420
   0.11419874  0.21136732  0.22975467
   0.15534105  0.16600577  0.35073211
   0.09035555  0.25781155  0.88542644
   0.12952139  0.21169261  0.02813457
   0.44236934  0.54221415  0.55435023
   0.48360570  0.49587984  0.67466927
   0.67883671  0.11428986  0.22489365
   0.68386781  0.15562612  0.34546719
   0.65715444  0.08937451  0.88130432
   0.66250870  0.12959293  0.02387541
   0.01524558  0.44640389  0.56468744
   0.01693511  0.48971900  0.68586494
   0.21324956  0.67535043  0.21823057
   0.16903151  0.67837273  0.34121402
   0.25959592  0.65238913  0.87706064
   0.21348941  0.65854878  0.01821307
   0.54794831  0.01180248  0.55910277
   0.50257450  0.01591299  0.67961372
   0.25002361  0.07452160  0.42152712
   0.21056012  0.12156462  0.28147187
   0.57931767  0.40511943  0.74597931
   0.53878314  0.45133240  0.60608905
   0.22603704  0.12198737  0.08121806
   0.18475087  0.16743537  0.95945057
   0.68444252  0.24932394  0.41514917
   0.67306423  0.21124707  0.27550395
   0.00655198  0.58761417  0.76324262
   0.00415311  0.54616405  0.61826007
   0.65499172  0.22706879  0.07751855
   0.65033981  0.18588837  0.95596998
   0.08193019  0.67037767  0.41925610
   0.12548351  0.66537601  0.27527348
   0.41140799  0.01224266  0.75145665
   0.45807326  0.00501656  0.61148645
   0.12513073  0.64918204  0.07490799
   0.17008512  0.64566147  0.95109716
   0.75583373  0.92571433  0.54920260
   0.79612161  0.88020767  0.68858893
   0.42000998  0.59079580  0.21272477
   0.45844916  0.54268765  0.35379488
   0.78066508  0.87998879  0.89131652
   0.82359963  0.83475466  0.01296520
   0.32315880  0.75252250  0.54833899
   0.33065135  0.79241895  0.68919098
   0.99485939  0.42087235  0.22058079
   0.00068453  0.46120603  0.36209154
   0.34667740  0.77573855  0.89089129
   0.35165167  0.81753437  0.01299301
   0.92754272  0.32444758  0.55033335
   0.88135113  0.33086661  0.69168664
   0.59366494  0.98951233  0.21451827
   0.54772030  0.99599961  0.35620647
   0.88207889  0.34658360  0.89371967
   0.83590740  0.35130114  0.01421092
   0.89448468  0.79261422  0.74168730
   0.85157712  0.83746124  0.62138254
   0.92062456  0.74740494  0.08992028
   0.87918336  0.79213057  0.94638405
   0.55413077  0.45263710  0.40737480
   0.51339988  0.49834574  0.28466824
   0.32468680  0.88931882  0.74361478
   0.32009904  0.84755174  0.62176286
   0.34910150  0.91254183  0.08494084
   0.34109948  0.87284907  0.94571608
   0.98962576  0.56094757  0.41498124
   0.98842918  0.51736297  0.29329346
   0.79121538  0.32451690  0.74483930
   0.83708401  0.31939081  0.62460453
   0.74099317  0.35428721  0.08173024
   0.79074716  0.34177548  0.94570756
   0.45798490  0.98899870  0.41021267
   0.50320660  0.98484163  0.28850443
   0.65020855  0.49894498  0.54250603
   0.77409223  0.21402358  0.92792315
   0.14402975  0.16529945  0.50450441
   0.47190325  0.49538538  0.82800016
   0.69725615  0.14365576  0.49807028
   0.02792865  0.47889109  0.84088181
   0.16855565  0.69083955  0.49462588
   0.50238235  0.02801433  0.83358026
   0.19620342  0.16808648  0.80570117
   0.63764229  0.19760811  0.80248166
   0.17065838  0.63312151  0.79786591
   0.81220513  0.83420303  0.16664676
   0.36416792  0.80536981  0.16609124
   0.83703188  0.36246036  0.16840243
   0.86288616  0.83806910  0.46757915
   0.52464093  0.49960250  0.13133782
   0.30762198  0.85975032  0.46840181
   0.97731158  0.52805386  0.13874358
   0.83821329  0.30559917  0.47177405
   0.50353389  0.97267572  0.13445401
   0.31213271  0.64119019  0.50042871
   0.04894180  0.31431979  0.51213241
   0.64407119  0.04709014  0.50816925
   0.02268332  0.69459890  0.79256800
   0.35826530  0.02578736  0.12716992
   0.29060756  0.02187432  0.80076357
   0.62311613  0.35596874  0.12295064
   0.70955823  0.27551087  0.81525979
   0.03129400  0.62122314  0.14512325
   0.64983970  0.97463260  0.83905736
   0.98424786  0.30942023  0.17790403
   0.38008181  0.64402157  0.83602286
   0.71507060  0.98102915  0.17325014
   0.98017412  0.37941918  0.84362661
   0.30942951  0.71232688  0.16991911
   0.68321633  0.36851987  0.48937746
   0.95552447  0.69048108  0.46910429
   0.36209036  0.95164909  0.46419455
   0.73787505  0.43537466  0.39771630
   0.63476830  0.47511556  0.84953216
Co–organic framework                  
           1
    25.974897   -0.119593   -0.054166
    12.883507   22.329088   -0.037147
    -0.014392   -0.003003    6.819533
   O    C    H    Co   Li
  58  74  18  18   2
Direct configuration=     3
   0.06248204  0.25267458  0.30930615
   0.03786820  0.29680359  0.94303196
   0.10752964  0.25861445  0.71251935
   0.39130695  0.58311406  0.63312089
   0.69025737  0.06157378  0.30433043
   0.67174146  0.03575744  0.93907532
   0.63952598  0.10601148  0.70719053
   0.02658108  0.39418116  0.64432034
   0.25338161  0.68819539  0.29653323
   0.30007660  0.66393528  0.93965394
   0.25898184  0.63630750  0.70113229
   0.58886000  0.02267146  0.63739808
   0.30123297  0.03368583  0.35808986
   0.23340789  0.07479068  0.59611609
   0.62845684  0.36113638  0.68884943
   0.56403119  0.41172623  0.92767316
   0.27796372  0.08136271  0.00189898
   0.68323320  0.29739281  0.34384948
   0.69620389  0.23322109  0.58963861
   0.98664188  0.64290795  0.71135331
   0.02674809  0.57062748  0.93750103
   0.64286972  0.27991366  0.99714466
   0.04363765  0.65361083  0.37496565
   0.08062244  0.69035771  0.59270899
   0.37156645  0.00026017  0.69196962
   0.41136334  0.03019147  0.92644929
   0.08370244  0.63794545  0.99406977
   0.70349690  0.96443795  0.60639799
   0.77268149  0.92698985  0.37298860
   0.36924017  0.63148233  0.27469050
   0.43797595  0.59024708  0.04033841
   0.72871536  0.91979216  0.97182693
   0.33490744  0.70052794  0.60711179
   0.30527565  0.77054961  0.37482085
   0.00809526  0.36834542  0.27720157
   0.97676412  0.43827515  0.04575730
   0.35675013  0.72418670  0.96830036
   0.96716924  0.33672021  0.60969407
   0.92689427  0.30778449  0.37461001
   0.63246716  0.00322562  0.27239218
   0.59434700  0.97143624  0.03997815
   0.92301343  0.35693303  0.97393748
   0.94681302  0.75369956  0.66201065
   0.97444825  0.71160109  0.04252395
   0.90167656  0.74603807  0.26197618
   0.60767110  0.41227417  0.33001091
   0.31341373  0.94169500  0.66528442
   0.33793816  0.96413999  0.02521449
   0.36703912  0.89472296  0.25956058
   0.97556855  0.61377578  0.32725488
   0.75037817  0.31281376  0.66628355
   0.69722888  0.35107361  0.01059530
   0.74222892  0.37021454  0.25843617
   0.41669786  0.97789724  0.33224006
   0.68417746  0.43954435  0.61752678
   0.60883836  0.53390338  0.65458845
   0.66818390  0.50905293  0.38305520
   0.81663468  0.17468282  0.99545213
   0.11413034  0.21147741  0.22967252
   0.15540726  0.16592614  0.35077768
   0.09027354  0.25781302  0.88576534
   0.12957958  0.21167520  0.02800963
   0.44253668  0.54217591  0.55417364
   0.48358255  0.49590188  0.67459472
   0.67890771  0.11414027  0.22492704
   0.68388645  0.15562966  0.34540711
   0.65721447  0.08916411  0.88145739
   0.66252280  0.12965877  0.02377090
   0.01524804  0.44648788  0.56462909
   0.01694202  0.48972162  0.68597304
   0.21332941  0.67532330  0.21829039
   0.16897964  0.67836629  0.34114289
   0.25973731  0.65247498  0.87729047
   0.21351836  0.65853180  0.01795181
   0.54789503  0.01177424  0.55857839
   0.50255797  0.01592075  0.67976295
   0.25020004  0.07440273  0.42109312
   0.21052066  0.12154658  0.28174731
   0.57928043  0.40510494  0.74650339
   0.53872840  0.45143214  0.60588005
   0.22603240  0.12196472  0.08099297
   0.18473770  0.16745752  0.95944720
   0.68441494  0.24956162  0.41392132
   0.67304878  0.21118920  0.27598922
   0.00650621  0.58779803  0.76406197
   0.00412752  0.54616462  0.61832803
   0.65496229  0.22723367  0.07728842
   0.65033769  0.18579936  0.95590304
   0.08176893  0.67046946  0.42008013
   0.12554041  0.66537649  0.27514292
   0.41143589  0.01227171  0.75163674
   0.45805872  0.00501656  0.61150912
   0.12516086  0.64909423  0.07453186
   0.17008106  0.64566009  0.95132040
   0.75585083  0.92584753  0.54835241
   0.79611253  0.88019775  0.68916344
   0.42000876  0.59065811  0.21349592
   0.45844258  0.54276277  0.35347864
   0.78081534  0.87978048  0.89134296
   0.82346041  0.83480018  0.01277316
   0.32316928  0.75259351  0.54861158
   0.33066672  0.79230823  0.68947841
   0.99479943  0.42094417  0.22022691
   0.00066725  0.46127286  0.36204794
   0.34663992  0.77599893  0.89078722
   0.35166913  0.81739212  0.01281059
   0.92749553  0.32441829  0.55026966
   0.88136826  0.33087135  0.69183163
   0.59364365  0.98951342  0.21452534
   0.54766466  0.99598952  0.35633020
   0.88193858  0.34657462  0.89366093
   0.83599248  0.35132171  0.01416658
   0.89439749  0.79276012  0.74270269
   0.85168376  0.83733038  0.62141911
   0.92045716  0.74751929  0.08960661
   0.87929369  0.79210529  0.94569798
   0.55411314  0.45262257  0.40646822
   0.51332700  0.49831193  0.28468123
   0.32469624  0.88919030  0.74388473
   0.32005353  0.84773051  0.62189082
   0.34908748  0.91246725  0.08490993
   0.34108905  0.87288877  0.94523846
   0.98960473  0.56086871  0.41424537
   0.98846619  0.51727813  0.29331266
   0.79121180  0.32430414  0.74502084
   0.83707149  0.31939685  0.62440299
   0.74118208  0.35424186  0.08148497
   0.79076110  0.34168189  0.94577400
   0.45796388  0.98898997  0.41018890
   0.50322926  0.98482899  0.28838254
   0.65049992  0.49884736  0.54327773
   0.77412519  0.21390861  0.92804030
   0.14403362  0.16529494  0.50455078
   0.47191563  0.49537104  0.82804881
   0.69725574  0.14364341  0.49810802
   0.02793119  0.47889277  0.84085255
   0.16855075  0.69083456  0.49458365
   0.50238455  0.02801364  0.83363250
   0.19620190  0.16807746  0.80569090
   0.63764986  0.19759921  0.80251307
   0.17065099  0.63313562  0.79794370
   0.81220055  0.83419531  0.16664799
   0.36417172  0.80537110  0.16608653
   0.83702717  0.36246310  0.16840072
   0.86288938  0.83810365  0.46756537
   0.52464469  0.49957863  0.13142596
   0.30762794  0.85974838  0.46848845
   0.97732112  0.52804467  0.13873252
   0.83821882  0.30558085  0.47175689
   0.50353970  0.97267516  0.13447344
   0.31193625  0.64113800  0.49990472
   0.04906251  0.31417482  0.51218692
   0.64428777  0.04672410  0.50699669
   0.02275127  0.69426931  0.79244567
   0.35851591  0.02569058  0.12775022
   0.29032370  0.02191350  0.80001745
   0.62310832  0.35594426  0.12202578
   0.70928918  0.27608798  0.81502506
   0.03114570  0.62136915  0.14538355
   0.64961253  0.97522576  0.84004789
   0.98408526  0.30948992  0.17765973
   0.38125565  0.64328763  0.83527732
   0.71437375  0.98141906  0.17339201
   0.98009269  0.37943746  0.84431296
   0.30921474  0.71290603  0.17063480
   0.68324603  0.36884348  0.48963084
   0.95582100  0.69135329  0.46605882
   0.36208244  0.95166116  0.46419676
   0.73801608  0.43558243  0.39749109
   0.63480536  0.47517740  0.84969321
Co–organic framework                  
           1
    25.956064   -0.121071   -0.048428
    12.872797   22.308694   -0.035492
    -0.012889   -0.003366    6.813412
   O    C    H    Co   Li
  58  74  18  18   2
Direct configuration=     4
   0.06247265  0.25268616  0.30937201
   0.03787052  0.29679865  0.94299092
   0.10753340  0.25862683  0.71242684
   0.39118619  0.58320971  0.63335615
   0.69024704  0.06162502  0.30439978
   0.67174453  0.03581976  0.93899361
   0.63951680  0.10602530  0.70716115
   0.02657544  0.39414939  0.64426255
   0.25339325  0.68815699  0.29650914
   0.30003874  0.66390249  0.93963434
   0.25899223  0.63630820  0.70110784
   0.58893238  0.02263096  0.63763593
   0.30117981  0.03373107  0.35813270
   0.23342277  0.07477436  0.59630776
   0.62849068  0.36106923  0.68889334
   0.56401147  0.41173453  0.92764184
   0.27796996  0.08134121  0.00187344
   0.68330232  0.29714168  0.34368259
   0.69620658  0.23321231  0.58984486
   0.98670397  0.64277000  0.71189666
   0.02677776  0.57058353  0.93744783
   0.64286607  0.27984781  0.99716104
   0.04365364  0.65361047  0.37498675
   0.08064885  0.69034538  0.59261118
   0.37153714  0.00026456  0.69201217
   0.41136214  0.03020088  0.92642696
   0.08370546  0.63801327  0.99410190
   0.70352002  0.96442514  0.60625640
   0.77272300  0.92693582  0.37316784
   0.36922994  0.63149772  0.27465016
   0.43790767  0.59034575  0.04009287
   0.72877085  0.91975736  0.97160712
   0.33491220  0.70050498  0.60723004
   0.30528351  0.77051694  0.37470414
   0.00811272  0.36829547  0.27722155
   0.97676920  0.43828212  0.04578757
   0.35675052  0.72407940  0.96826804
   0.96718084  0.33671939  0.60966473
   0.92690879  0.30778216  0.37460866
   0.63249466  0.00324479  0.27245096
   0.59433300  0.97140826  0.04009619
   0.92308457  0.35692570  0.97399823
   0.94675411  0.75370660  0.66226384
   0.97445524  0.71159847  0.04253626
   0.90158781  0.74610445  0.26160300
   0.60747769  0.41240093  0.33014842
   0.31340082  0.94170849  0.66535405
   0.33790972  0.96417126  0.02516598
   0.36703934  0.89471984  0.25951076
   0.97559852  0.61361058  0.32752362
   0.75050555  0.31268203  0.66671321
   0.69721495  0.35103881  0.01055043
   0.74219123  0.37023566  0.25842451
   0.41670524  0.97790387  0.33217755
   0.68412304  0.43972194  0.61766284
   0.60880622  0.53391116  0.65451877
   0.66818876  0.50905898  0.38299513
   0.81660958  0.17470750  0.99538366
   0.11411247  0.21150619  0.22965107
   0.15542456  0.16590532  0.35078956
   0.09025209  0.25781340  0.88585403
   0.12959479  0.21167065  0.02797691
   0.44258041  0.54216592  0.55412734
   0.48357651  0.49590764  0.67457523
   0.67892627  0.11410116  0.22493574
   0.68389132  0.15563059  0.34539138
   0.65723015  0.08910910  0.88149741
   0.66252649  0.12967598  0.02374354
   0.01524868  0.44650984  0.56461382
   0.01694381  0.48972231  0.68600130
   0.21335028  0.67531622  0.21830597
   0.16896610  0.67836461  0.34112434
   0.25977424  0.65249744  0.87735043
   0.21352595  0.65852736  0.01788348
   0.54788115  0.01176684  0.55844132
   0.50255365  0.01592278  0.67980198
   0.25024617  0.07437166  0.42097952
   0.21051034  0.12154187  0.28181937
   0.57927067  0.40510116  0.74664046
   0.53871411  0.45145822  0.60582542
   0.22603120  0.12195879  0.08093412
   0.18473425  0.16746332  0.95944633
   0.68440781  0.24962376  0.41360023
   0.67304472  0.21117407  0.27611614
   0.00649420  0.58784612  0.76427620
   0.00412083  0.54616476  0.61834583
   0.65495461  0.22727678  0.07722823
   0.65033715  0.18577609  0.95588556
   0.08172673  0.67049346  0.42029571
   0.12555529  0.66537662  0.27510874
   0.41144317  0.01227931  0.75168380
   0.45805492  0.00501657  0.61151506
   0.12516876  0.64907126  0.07443351
   0.17007998  0.64565974  0.95137878
   0.75585535  0.92588235  0.54813005
   0.79611012  0.88019517  0.68931367
   0.42000839  0.59062211  0.21369759
   0.45844088  0.54278241  0.35339594
   0.78085460  0.87972601  0.89134980
   0.82342404  0.83481207  0.01272306
   0.32317200  0.75261209  0.54868283
   0.33067072  0.79227928  0.68955358
   0.99478379  0.42096294  0.22013441
   0.00066274  0.46129034  0.36203654
   0.34663012  0.77606701  0.89075998
   0.35167371  0.81735492  0.01276291
   0.92748321  0.32441063  0.55025305
   0.88137273  0.33087260  0.69186953
   0.59363809  0.98951370  0.21452721
   0.54765012  0.99598688  0.35636260
   0.88190192  0.34657226  0.89364568
   0.83601471  0.35132710  0.01415491
   0.89437464  0.79279828  0.74296824
   0.85171163  0.83729616  0.62142862
   0.92041344  0.74754918  0.08952470
   0.87932256  0.79209867  0.94551850
   0.55410860  0.45261875  0.40623118
   0.51330795  0.49830309  0.28468469
   0.32469869  0.88915669  0.74395533
   0.32004163  0.84777726  0.62192427
   0.34908382  0.91244775  0.08490188
   0.34108635  0.87289915  0.94511357
   0.98959928  0.56084808  0.41405299
   0.98847586  0.51725595  0.29331766
   0.79121086  0.32424851  0.74506836
   0.83706823  0.31939842  0.62435030
   0.74123145  0.35423001  0.08142069
   0.79076474  0.34165741  0.94579139
   0.45795839  0.98898768  0.41018270
   0.50323519  0.98482569  0.28835065
   0.65057600  0.49882186  0.54347929
   0.77413380  0.21387855  0.92807093
   0.14403463  0.16529376  0.50456290
   0.47191886  0.49536729  0.82806152
   0.69725563  0.14364018  0.49811790
   0.02793185  0.47889321  0.84084490
   0.16854947  0.69083325  0.49457261
   0.50238513  0.02801346  0.83364616
   0.19620151  0.16807510  0.80568821
   0.63765184  0.19759689  0.80252128
   0.17064906  0.63313931  0.79796404
   0.81219936  0.83419329  0.16664831
   0.36417271  0.80537144  0.16608529
   0.83702594  0.36246381  0.16840028
   0.86289023  0.83811268  0.46756176
   0.52464567  0.49957239  0.13144901
   0.30762949  0.85974787  0.46851110
   0.97732361  0.52804227  0.13872962
   0.83822027  0.30557605  0.47175240
   0.50354122  0.97267502  0.13447851
   0.31188495  0.64112434  0.49976788
   0.04909405  0.31413692  0.51220111
   0.64434445  0.04662838  0.50669000
   0.02276904  0.69418313  0.79241371
   0.35858136  0.02566530  0.12790177
   0.29024958  0.02192371  0.79982258
   0.62310634  0.35593785  0.12178396
   0.70921887  0.27623887  0.81496377
   0.03110692  0.62140732  0.14545170
   0.64955309  0.97538086  0.84030694
   0.98404279  0.30950812  0.17759597
   0.38156242  0.64309578  0.83508156
   0.71419166  0.98152098  0.17342960
   0.98007137  0.37944224  0.84449250
   0.30915856  0.71305747  0.17082197
   0.68325375  0.36892811  0.48969699
   0.95589864  0.69158134  0.46526204
   0.36208037  0.95166432  0.46419734
   0.73805293  0.43563677  0.39743204
   0.63481503  0.47519358  0.84973527
Co–organic framework                  
           1
    25.937365   -0.122539   -0.042730
    12.862163   22.288445   -0.033850
    -0.011397   -0.003725    6.807334
   O    C    H    Co   Li
  58  74  18  18   2
Direct configuration=     5
   0.06246332  0.25269766  0.30943746
   0.03787282  0.29679375  0.94295014
   0.10753714  0.25863913  0.71233491
   0.39106618  0.58330476  0.63359002
   0.69023676  0.06167593  0.30446869
   0.67174759  0.03588169  0.93891240
   0.63950769  0.10603904  0.70713195
   0.02656984  0.39411781  0.64420513
   0.25340481  0.68811883  0.29648519
   0.30000113  0.66386990  0.93961490
   0.25900255  0.63630890  0.70108352
   0.58900428  0.02259073  0.63787224
   0.30112698  0.03377602  0.35817530
   0.23343753  0.07475813  0.59649822
   0.62852431  0.36100250  0.68893696
   0.56399189  0.41174278  0.92761073
   0.27797616  0.08131984  0.00184806
   0.68337101  0.29689212  0.34351673
   0.69620924  0.23320358  0.59004982
   0.98676563  0.64263291  0.71243660
   0.02680725  0.57053986  0.93739495
   0.64286244  0.27978237  0.99717733
   0.04366952  0.65361012  0.37500771
   0.08067510  0.69033313  0.59251396
   0.37150802  0.00026892  0.69205447
   0.41136095  0.03021022  0.92640478
   0.08370845  0.63808067  0.99413382
   0.70354301  0.96441241  0.60611568
   0.77276424  0.92688213  0.37334594
   0.36921979  0.63151300  0.27461006
   0.43783984  0.59044379  0.03984889
   0.72882599  0.91972277  0.97138864
   0.33491693  0.70048216  0.60734756
   0.30529133  0.77048448  0.37458816
   0.00813006  0.36824583  0.27724140
   0.97677424  0.43828906  0.04581764
   0.35675090  0.72397277  0.96823594
   0.96719236  0.33671858  0.60963557
   0.92692322  0.30777984  0.37460732
   0.63252198  0.00326385  0.27250935
   0.59431909  0.97138046  0.04021352
   0.92315526  0.35691842  0.97405855
   0.94669556  0.75371359  0.66251550
   0.97446217  0.71159587  0.04254849
   0.90149966  0.74617041  0.26123220
   0.60728551  0.41252690  0.33028521
   0.31338798  0.94172189  0.66542326
   0.33788146  0.96420234  0.02511780
   0.36703956  0.89471675  0.25946124
   0.97562828  0.61344641  0.32779071
   0.75063210  0.31255114  0.66714012
   0.69720111  0.35100422  0.01050586
   0.74215378  0.37025665  0.25841294
   0.41671256  0.97791046  0.33211542
   0.68406897  0.43989842  0.61779806
   0.60877428  0.53391889  0.65444954
   0.66819359  0.50906500  0.38293543
   0.81658464  0.17473202  0.99531563
   0.11409471  0.21153479  0.22962976
   0.15544174  0.16588464  0.35080136
   0.09023077  0.25781378  0.88594218
   0.12960991  0.21166612  0.02794439
   0.44262387  0.54215600  0.55408129
   0.48357051  0.49591336  0.67455588
   0.67894471  0.11406229  0.22494439
   0.68389617  0.15563151  0.34537575
   0.65724573  0.08905443  0.88153719
   0.66253016  0.12969309  0.02371635
   0.01524932  0.44653167  0.56459863
   0.01694560  0.48972299  0.68602938
   0.21337100  0.67530917  0.21832143
   0.16895264  0.67836293  0.34110591
   0.25981092  0.65251977  0.87740998
   0.21353348  0.65852294  0.01781556
   0.54786737  0.01175949  0.55830512
   0.50254935  0.01592480  0.67984078
   0.25029201  0.07434077  0.42086659