  146  146 1000    2
  0.2444937E+02  0.2453892E-08  0.2561024E-08  0.6873265E-09  0.5000000E-15
  1.000000000000000E-004
  CAR 
 Co–organic framework                  
    722      1    462
