  146  146 1000    2
  0.2166304E+02  0.2413994E-08  0.2383006E-08  0.6826046E-09  0.5000000E-15
  1.000000000000000E-004
  CAR 
 Co–organic framework                  
    722      1    462
