 running on   24 total cores
 distrk:  each k-point on   24 cores,    1 groups
 distr:  one band on    4 cores,    6 groups
 using from now: INCAR     
 vasp.5.4.4.18Apr17-6-g9f103f2a35 (build May 21 2019 18:55:53) complex          
  
 POSCAR found type information on POSCAR  O  C  H  Co
 POSCAR found :  4 types and     146 ions
 LDA part: xc-table for Pade appr. of Perdew
 POSCAR found type information on POSCAR  O  C  H  Co
 POSCAR found :  4 types and     146 ions
 POSCAR, INCAR and KPOINTS ok, starting setup
 FFT: planning ...
 WAVECAR not read
 WARNING: random wavefunctions but no delay for mixing, default for NELMDL
 entering main loop
       N       E                     dE             d eps       ncg     rms          rms(c)
DAV:   1     0.782882844015E+04    0.78288E+04   -0.30506E+05  1848   0.136E+03
DAV:   2     0.830111438853E+03   -0.69987E+04   -0.63066E+04  2100   0.415E+02
DAV:   3    -0.107201917840E+04   -0.19021E+04   -0.17954E+04  3108   0.213E+02
DAV:   4    -0.124048850402E+04   -0.16847E+03   -0.15587E+03  2880   0.710E+01
DAV:   5    -0.124945975430E+04   -0.89713E+01   -0.80672E+01  3048   0.162E+01    0.149E+02
RMM:   6    -0.169657544520E+04   -0.44712E+03   -0.31011E+03  2391   0.136E+02    0.480E+02
RMM:   7    -0.147229569975E+04    0.22428E+03   -0.22737E+02  1854   0.470E+01    0.289E+02
RMM:   8    -0.108015740170E+04    0.39214E+03   -0.48683E+02  2032   0.463E+01    0.862E+01
RMM:   9    -0.126747740377E+04   -0.18732E+03   -0.85708E+01  2031   0.191E+01    0.180E+02
RMM:  10    -0.114602249617E+04    0.12145E+03   -0.84070E+01  1959   0.218E+01    0.128E+02
RMM:  11    -0.109362189890E+04    0.52401E+02   -0.69780E+01  1914   0.202E+01    0.109E+02
RMM:  12    -0.111933604751E+04   -0.25714E+02   -0.51025E+01  1976   0.168E+01    0.118E+02
RMM:  13    -0.109470527879E+04    0.24631E+02   -0.41385E+01  1922   0.152E+01    0.970E+01
RMM:  14    -0.106649480247E+04    0.28210E+02   -0.29388E+01  1965   0.125E+01    0.893E+01
RMM:  15    -0.106254043815E+04    0.39544E+01   -0.15826E+01  1958   0.912E+00    0.800E+01
RMM:  16    -0.105125404516E+04    0.11286E+02   -0.95318E+00  1970   0.683E+00    0.556E+01
RMM:  17    -0.105024381735E+04    0.10102E+01   -0.54702E+00  2006   0.504E+00    0.537E+01
RMM:  18    -0.104612722243E+04    0.41166E+01   -0.48859E+00  2005   0.491E+00    0.407E+01
RMM:  19    -0.104309837506E+04    0.30288E+01   -0.24398E+00  1974   0.344E+00    0.293E+01
RMM:  20    -0.104381722431E+04   -0.71885E+00   -0.11238E+00  1968   0.234E+00    0.306E+01
RMM:  21    -0.104308141513E+04    0.73581E+00   -0.42348E-01  2015   0.146E+00    0.236E+01
RMM:  22    -0.104390116224E+04   -0.81975E+00   -0.34402E-01  1966   0.129E+00    0.225E+01
RMM:  23    -0.104390419177E+04   -0.30295E-02   -0.71602E-02  2025   0.636E-01    0.220E+01
RMM:  24    -0.104396987079E+04   -0.65679E-01   -0.18907E-02  2275   0.269E-01    0.223E+01
RMM:  25    -0.104395625142E+04    0.13619E-01   -0.51867E-03  2063   0.143E-01    0.223E+01
RMM:  26    -0.104391664822E+04    0.39603E-01   -0.26403E-03  2080   0.900E-02    0.222E+01
RMM:  27    -0.104388592841E+04    0.30720E-01   -0.88240E-02  1936   0.602E-01    0.227E+01
RMM:  28    -0.104384773917E+04    0.38189E-01   -0.42250E-02  1929   0.463E-01    0.218E+01
RMM:  29    -0.104403582318E+04   -0.18808E+00   -0.11139E-01  1907   0.703E-01    0.225E+01
RMM:  30    -0.104415203926E+04   -0.11622E+00   -0.54179E-02  2004   0.498E-01    0.226E+01
RMM:  31    -0.104412735080E+04    0.24688E-01   -0.22368E-02  2070   0.330E-01    0.219E+01
RMM:  32    -0.104412981350E+04   -0.24627E-02   -0.11199E-02  1935   0.231E-01    0.221E+01
RMM:  33    -0.104420370133E+04   -0.73888E-01   -0.11786E-02  1966   0.223E-01    0.226E+01
RMM:  34    -0.104422033473E+04   -0.16633E-01   -0.11570E-02  1918   0.236E-01    0.233E+01
RMM:  35    -0.104412874173E+04    0.91593E-01   -0.45047E-02  1915   0.450E-01    0.233E+01
RMM:  36    -0.104407684932E+04    0.51892E-01   -0.37087E-02  1994   0.407E-01    0.229E+01
RMM:  37    -0.104422058704E+04   -0.14374E+00   -0.36400E-02  1951   0.402E-01    0.214E+01
RMM:  38    -0.104445961809E+04   -0.23903E+00   -0.22125E-02  2034   0.317E-01    0.212E+01
RMM:  39    -0.104432484185E+04    0.13478E+00   -0.13361E-02  1870   0.256E-01    0.211E+01
RMM:  40    -0.104414355141E+04    0.18129E+00   -0.26741E-02  1912   0.332E-01    0.215E+01
RMM:  41    -0.104409988847E+04    0.43663E-01   -0.47826E-03  2052   0.145E-01    0.216E+01
RMM:  42    -0.104387284451E+04    0.22704E+00   -0.28744E-02  1868   0.341E-01    0.219E+01
RMM:  43    -0.104420258569E+04   -0.32974E+00   -0.33194E-02  1886   0.385E-01    0.217E+01
RMM:  44    -0.104554672700E+04   -0.13441E+01   -0.29014E-01  1935   0.980E-01    0.196E+01
RMM:  45    -0.104799557037E+04   -0.24488E+01   -0.72748E-01  1977   0.158E+00    0.234E+01
RMM:  46    -0.104799616536E+04   -0.59499E-03   -0.17873E-01  2019   0.897E-01    0.216E+01
RMM:  47    -0.104846490417E+04   -0.46874E+00   -0.18206E-01  2061   0.803E-01    0.238E+01
RMM:  48    -0.104902745455E+04   -0.56255E+00   -0.12066E+00  1879   0.220E+00    0.215E+01
RMM:  49    -0.104819129135E+04    0.83616E+00   -0.10012E+00  1966   0.205E+00    0.294E+01
RMM:  50    -0.104811421252E+04    0.77079E-01   -0.19016E-01  2246   0.839E-01    0.284E+01
RMM:  51    -0.105104491502E+04   -0.29307E+01   -0.16107E+00  1881   0.290E+00    0.219E+01
RMM:  52    -0.105203993130E+04   -0.99502E+00   -0.54104E-01  2034   0.152E+00    0.261E+01
RMM:  53    -0.105423986346E+04   -0.21999E+01   -0.65349E-01  2003   0.173E+00    0.189E+01
RMM:  54    -0.105602372718E+04   -0.17839E+01   -0.47683E-01  2038   0.135E+00    0.204E+01
RMM:  55    -0.105756287529E+04   -0.15391E+01   -0.57848E-01  1967   0.135E+00    0.170E+01
RMM:  56    -0.106030763875E+04   -0.27448E+01   -0.98033E-01  2027   0.188E+00    0.295E+01
RMM:  57    -0.105930105879E+04    0.10066E+01   -0.34320E-01  1966   0.130E+00    0.225E+01
RMM:  58    -0.105997989904E+04   -0.67884E+00   -0.80037E-01  1936   0.176E+00    0.221E+01
RMM:  59    -0.106117527223E+04   -0.11954E+01   -0.77543E-01  1946   0.181E+00    0.226E+01
RMM:  60    -0.106247490199E+04   -0.12996E+01   -0.40629E-01  2058   0.114E+00    0.198E+01
RMM:  61    -0.106697535587E+04   -0.45005E+01   -0.14865E+00  1939   0.249E+00    0.413E+01
RMM:  62    -0.106492949800E+04    0.20459E+01   -0.69124E-01  1893   0.189E+00    0.295E+01
RMM:  63    -0.106485228621E+04    0.77212E-01   -0.23437E-01  2064   0.949E-01    0.241E+01
RMM:  64    -0.106538416621E+04   -0.53188E+00   -0.13331E-01  1896   0.758E-01    0.229E+01
RMM:  65    -0.106509718099E+04    0.28699E+00   -0.37175E-02  1966   0.442E-01    0.224E+01
RMM:  66    -0.106509616343E+04    0.10176E-02   -0.21633E-01  1871   0.976E-01    0.237E+01
RMM:  67    -0.106508295015E+04    0.13213E-01   -0.60527E-02  1903   0.594E-01    0.238E+01
RMM:  68    -0.106511546924E+04   -0.32519E-01   -0.22830E-02  2137   0.333E-01    0.243E+01
RMM:  69    -0.106506100280E+04    0.54466E-01   -0.11104E-02  2123   0.198E-01    0.243E+01
RMM:  70    -0.106516915560E+04   -0.10815E+00   -0.25627E-02  1955   0.309E-01    0.250E+01
RMM:  71    -0.106589734416E+04   -0.72819E+00   -0.22594E-01  1872   0.101E+00    0.273E+01
RMM:  72    -0.106586090175E+04    0.36442E-01   -0.10104E-01  1967   0.750E-01    0.226E+01
RMM:  73    -0.106574277013E+04    0.11813E+00   -0.21619E-01  1948   0.998E-01    0.226E+01
RMM:  74    -0.106584516144E+04   -0.10239E+00   -0.87780E-02  1972   0.622E-01    0.222E+01
RMM:  75    -0.106589104094E+04   -0.45879E-01   -0.46215E-02  2032   0.432E-01    0.229E+01
RMM:  76    -0.106616190321E+04   -0.27086E+00   -0.22865E-01  1905   0.102E+00    0.255E+01
RMM:  77    -0.106618257512E+04   -0.20672E-01   -0.17838E-01  1943   0.994E-01    0.228E+01
RMM:  78    -0.106626996862E+04   -0.87393E-01   -0.91352E-02  1968   0.670E-01    0.216E+01
RMM:  79    -0.106658785506E+04   -0.31789E+00   -0.38609E-02  2042   0.389E-01    0.235E+01
RMM:  80    -0.106664629271E+04   -0.58438E-01   -0.15607E-02  2070   0.256E-01    0.233E+01
RMM:  81    -0.106650101434E+04    0.14528E+00   -0.60826E-01  1906   0.170E+00    0.265E+01
RMM:  82    -0.106650258894E+04   -0.15746E-02   -0.14527E-01  1871   0.940E-01    0.214E+01
RMM:  83    -0.106709247110E+04   -0.58988E+00   -0.15132E-01  1890   0.837E-01    0.177E+01
RMM:  84    -0.106727791392E+04   -0.18544E+00   -0.11631E-01  2004   0.735E-01    0.169E+01
RMM:  85    -0.106774595362E+04   -0.46804E+00   -0.10021E-01  1970   0.620E-01    0.177E+01
RMM:  86    -0.106794425980E+04   -0.19831E+00   -0.77324E-01  1894   0.183E+00    0.289E+01
RMM:  87    -0.106713900108E+04    0.80526E+00   -0.24405E-01  1931   0.104E+00    0.188E+01
RMM:  88    -0.106762516200E+04   -0.48616E+00   -0.15662E-01  1870   0.855E-01    0.169E+01
RMM:  89    -0.106812818146E+04   -0.50302E+00   -0.11990E-01  1921   0.723E-01    0.173E+01
RMM:  90    -0.106829251726E+04   -0.16434E+00   -0.61071E-02  2079   0.502E-01    0.165E+01
RMM:  91    -0.106927323819E+04   -0.98072E+00   -0.31064E-01  1889   0.108E+00    0.190E+01
RMM:  92    -0.106973778019E+04   -0.46454E+00   -0.16328E-01  1985   0.829E-01    0.188E+01
RMM:  93    -0.106984849990E+04   -0.11072E+00   -0.10478E-01  2069   0.649E-01    0.182E+01
RMM:  94    -0.107011349152E+04   -0.26499E+00   -0.10947E-01  2048   0.609E-01    0.151E+01
RMM:  95    -0.107052959311E+04   -0.41610E+00   -0.12408E-01  2086   0.683E-01    0.166E+01
RMM:  96    -0.107006679178E+04    0.46280E+00   -0.41542E-01  1906   0.136E+00    0.180E+01
RMM:  97    -0.107030012663E+04   -0.23333E+00   -0.13457E-01  1936   0.827E-01    0.138E+01
RMM:  98    -0.107076658085E+04   -0.46645E+00   -0.10236E-01  1948   0.622E-01    0.109E+01
RMM:  99    -0.107138849119E+04   -0.62191E+00   -0.10942E-01  2060   0.618E-01    0.951E+00
RMM: 100    -0.107214990761E+04   -0.76142E+00   -0.17982E-01  1963   0.733E-01    0.737E+00
RMM: 101    -0.107275924501E+04   -0.60934E+00   -0.23523E-01  2075   0.940E-01    0.721E+00
RMM: 102    -0.107295810830E+04   -0.19886E+00   -0.10066E-01  2085   0.620E-01    0.658E+00
RMM: 103    -0.107309696154E+04   -0.13885E+00   -0.42005E-02  2219   0.337E-01    0.640E+00
RMM: 104    -0.107325065699E+04   -0.15370E+00   -0.18290E-02  2138   0.234E-01    0.658E+00
RMM: 105    -0.107336865695E+04   -0.11800E+00   -0.12843E-02  2103   0.191E-01    0.695E+00
RMM: 106    -0.107339015323E+04   -0.21496E-01   -0.26366E-02  2012   0.318E-01    0.685E+00
RMM: 107    -0.107349970720E+04   -0.10955E+00   -0.12610E-02  2043   0.199E-01    0.714E+00
RMM: 108    -0.107358631654E+04   -0.86609E-01   -0.54759E-03  2183   0.132E-01    0.793E+00
RMM: 109    -0.107360222109E+04   -0.15905E-01   -0.20972E-03  1977   0.975E-02    0.828E+00
RMM: 110    -0.107386840947E+04   -0.26619E+00   -0.26603E-02  1861   0.303E-01    0.775E+00
RMM: 111    -0.107428267385E+04   -0.41426E+00   -0.69815E-02  1923   0.520E-01    0.103E+01
RMM: 112    -0.107432091091E+04   -0.38237E-01   -0.22136E-02  2062   0.307E-01    0.110E+01
RMM: 113    -0.107432891100E+04   -0.80001E-02   -0.84191E-03  2154   0.189E-01    0.125E+01
RMM: 114    -0.107425912358E+04    0.69787E-01   -0.19628E-02  1951   0.266E-01    0.914E+00
RMM: 115    -0.107436365299E+04   -0.10453E+00   -0.49377E-02  2034   0.413E-01    0.662E+00
RMM: 116    -0.107470606379E+04   -0.34241E+00   -0.72755E-02  1939   0.515E-01    0.695E+00
RMM: 117    -0.107489480415E+04   -0.18874E+00   -0.32167E-02  2221   0.267E-01    0.732E+00
RMM: 118    -0.107493453233E+04   -0.39728E-01   -0.10181E-02  2138   0.178E-01    0.738E+00
RMM: 119    -0.107494635815E+04   -0.11826E-01   -0.52181E-03  2187   0.130E-01    0.728E+00
RMM: 120    -0.107496934134E+04   -0.22983E-01   -0.31126E-03  2296   0.890E-02
   1 F= -.10818370E+04 E0= -.10818283E+04  d E =-.108184E+04  mag=    36.1590
 curvature:   0.00 expect dE= 0.000E+00 dE for cont linesearch  0.000E+00
 trial: gam= 0.00000 g(F)=  0.320E+00 g(S)=  0.966E-02 ort = 0.000E+00 (trialstep = 0.100E+01)
 search vector abs. value=  0.330E+00
 bond charge predicted
       N       E                     dE             d eps       ncg     rms          rms(c)
DAV:   1    -0.107421151261E+04    0.73485E+00   -0.11615E+02  1920   0.205E+01    0.124E+01
RMM:   2    -0.109563465762E+04   -0.21423E+02   -0.18428E+01  1931   0.100E+01    0.838E+01
RMM:   3    -0.107775013811E+04    0.17885E+02   -0.92627E+00  1929   0.735E+00    0.419E+01
RMM:   4    -0.107377500399E+04    0.39751E+01   -0.17989E+00  2038   0.318E+00    0.161E+01
RMM:   5    -0.107456679587E+04   -0.79179E+00   -0.13193E+00  2009   0.241E+00    0.184E+01
RMM:   6    -0.107431834529E+04    0.24845E+00   -0.74610E-01  1970   0.193E+00    0.149E+01
RMM:   7    -0.107403614138E+04    0.28220E+00   -0.25755E-01  1992   0.111E+00    0.876E+00
RMM:   8    -0.107409494834E+04   -0.58807E-01   -0.15225E-01  1957   0.858E-01    0.758E+00
RMM:   9    -0.107412006323E+04   -0.25115E-01   -0.34444E-02  2178   0.355E-01    0.726E+00
RMM:  10    -0.107415857094E+04   -0.38508E-01   -0.18585E-02  2073   0.257E-01    0.705E+00
RMM:  11    -0.107431122435E+04   -0.15265E+00   -0.10179E-01  1936   0.632E-01    0.101E+01
RMM:  12    -0.107479635112E+04   -0.48513E+00   -0.41137E-01  1977   0.128E+00    0.170E+01
RMM:  13    -0.107458162718E+04    0.21472E+00   -0.35235E-01  1999   0.129E+00    0.829E+00
RMM:  14    -0.107464680923E+04   -0.65182E-01   -0.15700E-01  2022   0.838E-01    0.835E+00
RMM:  15    -0.107471639266E+04   -0.69583E-01   -0.12065E-01  2012   0.742E-01    0.547E+00
RMM:  16    -0.107482926748E+04   -0.11287E+00   -0.71089E-02  2049   0.562E-01    0.545E+00
RMM:  17    -0.107487726658E+04   -0.47999E-01   -0.32892E-02  2117   0.363E-01    0.436E+00
RMM:  18    -0.107489598503E+04   -0.18718E-01   -0.10909E-02  2109   0.205E-01    0.413E+00
RMM:  19    -0.107497231869E+04   -0.76334E-01   -0.13328E-02  2042   0.218E-01    0.341E+00
RMM:  20    -0.107509105550E+04   -0.11874E+00   -0.25658E-02  2004   0.333E-01    0.317E+00
RMM:  21    -0.107526759168E+04   -0.17654E+00   -0.23631E-02  1963   0.302E-01    0.259E+00
RMM:  22    -0.107538934445E+04   -0.12175E+00   -0.17364E-02  2116   0.254E-01    0.209E+00
RMM:  23    -0.107552926769E+04   -0.13992E+00   -0.14970E-02  2016   0.215E-01    0.178E+00
RMM:  24    -0.107566023699E+04   -0.13097E+00   -0.12620E-02  2124   0.186E-01    0.168E+00
RMM:  25    -0.107574448244E+04   -0.84245E-01   -0.87140E-03  2143   0.162E-01    0.134E+00
RMM:  26    -0.107587891078E+04   -0.13443E+00   -0.97323E-03  2024   0.138E-01    0.848E-01
RMM:  27    -0.107601557420E+04   -0.13666E+00   -0.10259E-02  2197   0.127E-01    0.664E-01
RMM:  28    -0.107607581374E+04   -0.60240E-01   -0.47445E-03  2191   0.102E-01    0.599E-01
RMM:  29    -0.107620345696E+04   -0.12764E+00   -0.83760E-03  1957   0.103E-01    0.385E-01
RMM:  30    -0.107630647120E+04   -0.10301E+00   -0.77466E-03  2284   0.107E-01    0.468E-01
RMM:  31    -0.107634110432E+04   -0.34633E-01   -0.24076E-03  2297   0.643E-02    0.355E-01
RMM:  32    -0.107638993996E+04   -0.48836E-01   -0.27325E-03  2180   0.565E-02    0.235E-01
RMM:  33    -0.107643099982E+04   -0.41060E-01   -0.28506E-03  2221   0.591E-02    0.233E-01
RMM:  34    -0.107645056518E+04   -0.19565E-01   -0.15442E-03  2281   0.436E-02    0.232E-01
RMM:  35    -0.107646159852E+04   -0.11033E-01   -0.96659E-04  2266   0.324E-02    0.163E-01
RMM:  36    -0.107646717912E+04   -0.55806E-02   -0.48893E-04  2241   0.248E-02    0.156E-01
RMM:  37    -0.107646891517E+04   -0.17360E-02   -0.15296E-04  2094   0.150E-02    0.130E-01
RMM:  38    -0.107647060429E+04   -0.16891E-02   -0.10537E-04  2074   0.116E-02    0.107E-01
RMM:  39    -0.107647219746E+04   -0.15932E-02   -0.13929E-04  2119   0.130E-02    0.766E-02
RMM:  40    -0.107647275115E+04   -0.55369E-03   -0.59619E-05  1969   0.980E-03    0.556E-02
RMM:  41    -0.107647315654E+04   -0.40539E-03   -0.46812E-05  1968   0.748E-03    0.392E-02
RMM:  42    -0.107647344558E+04   -0.28904E-03   -0.22379E-05  1778   0.600E-03    0.265E-02
RMM:  43    -0.107647361136E+04   -0.16578E-03   -0.95086E-06  1557   0.406E-03    0.186E-02
RMM:  44    -0.107647377116E+04   -0.15980E-03   -0.71468E-06  1505   0.368E-03    0.133E-02
RMM:  45    -0.107647392417E+04   -0.15301E-03   -0.76691E-06  1519   0.342E-03    0.700E-03
RMM:  46    -0.107647399826E+04   -0.74093E-04   -0.34861E-06  1332   0.295E-03    0.596E-03
RMM:  47    -0.107647403556E+04   -0.37297E-04   -0.15731E-06  1175   0.195E-03    0.645E-03
RMM:  48    -0.107647407304E+04   -0.37486E-04   -0.11444E-06  1122   0.166E-03    0.395E-03
RMM:  49    -0.107647411351E+04   -0.40467E-04   -0.15836E-06  1134   0.160E-03    0.364E-03
RMM:  50    -0.107647413271E+04   -0.19201E-04   -0.95772E-07  1041   0.145E-03    0.348E-03
RMM:  51    -0.107647414711E+04   -0.14398E-04   -0.92778E-07  1033   0.122E-03    0.292E-03
RMM:  52    -0.107647416421E+04   -0.17098E-04   -0.12674E-06  1125   0.137E-03    0.203E-03
RMM:  53    -0.107647416891E+04   -0.47020E-05   -0.81675E-07   996   0.124E-03    0.121E-03
RMM:  54    -0.107647417390E+04   -0.49906E-05   -0.65527E-07   961   0.107E-03    0.915E-04
RMM:  55    -0.107647417512E+04   -0.12224E-05   -0.52524E-07   975   0.100E-03    0.777E-04
RMM:  56    -0.107647417573E+04   -0.61325E-06   -0.40850E-07   888   0.846E-04
   2 F= -.10833517E+04 E0= -.10833402E+04  d E =-.151474E+01  mag=    36.0056
 trial-energy change:   -1.514737  1 .order   -0.035176   -0.329522    0.259171
 step:   0.9719(harm=  0.5598)  dis= 0.06013  next Energy= -1083.355345 (dE=-0.152E+01)
 bond charge predicted
       N       E                     dE             d eps       ncg     rms          rms(c)
DAV:   1    -0.107648132301E+04   -0.71479E-02   -0.91958E-02  2004   0.585E-01    0.132E-01
RMM:   2    -0.107648155256E+04   -0.22955E-03   -0.16665E-03  1940   0.987E-02    0.184E-01
RMM:   3    -0.107648181996E+04   -0.26739E-03   -0.60033E-04  2166   0.547E-02    0.361E-01
RMM:   4    -0.107648160080E+04    0.21916E-03   -0.26234E-04  2104   0.342E-02    0.222E-01
RMM:   5    -0.107648155123E+04    0.49565E-04   -0.92396E-05  1814   0.214E-02    0.104E-01
RMM:   6    -0.107648156894E+04   -0.17706E-04   -0.47168E-05  1657   0.145E-02    0.844E-02
RMM:   7    -0.107648157403E+04   -0.50877E-05   -0.28076E-05  1645   0.116E-02    0.846E-02
RMM:   8    -0.107648156402E+04    0.10008E-04   -0.20907E-05  1698   0.103E-02    0.555E-02
RMM:   9    -0.107648157432E+04   -0.10298E-04   -0.15131E-05  1395   0.811E-03    0.701E-02
RMM:  10    -0.107648157321E+04    0.11054E-05   -0.13011E-05  1386   0.822E-03    0.686E-02
RMM:  11    -0.107648156545E+04    0.77591E-05   -0.84070E-06  1312   0.696E-03    0.294E-02
RMM:  12    -0.107648156900E+04   -0.35435E-05   -0.40648E-06  1259   0.477E-03    0.244E-02
RMM:  13    -0.107648156941E+04   -0.40995E-06   -0.15654E-06  1175   0.330E-03
   3 F= -.10833588E+04 E0= -.10833474E+04  d E =-.152185E+01  mag=    36.0052
 curvature:  -0.03 expect dE=-0.316E-01 dE for cont linesearch -0.642E-02
 ZBRENT: interpolating
 opt :   0.5552  next Energy= -1083.410370 (dE=-0.157E+01)
 bond charge predicted
       N       E                     dE             d eps       ncg     rms          rms(c)
DAV:   1    -0.107649138445E+04   -0.98155E-02   -0.20224E+01  1884   0.871E+00    0.197E+00
RMM:   2    -0.107655954360E+04   -0.68159E-01   -0.41181E-01  1938   0.153E+00    0.313E+00
RMM:   3    -0.107663588595E+04   -0.76342E-01   -0.14352E-01  2189   0.828E-01    0.772E+00
RMM:   4    -0.107656746970E+04    0.68416E-01   -0.68579E-02  2225   0.535E-01    0.278E+00
RMM:   5    -0.107655539600E+04    0.12074E-01   -0.30913E-02  2051   0.407E-01    0.153E+00
RMM:   6    -0.107655552087E+04   -0.12487E-03   -0.11509E-02  2122   0.233E-01    0.157E+00
RMM:   7    -0.107655437202E+04    0.11489E-02   -0.71430E-03  2170   0.167E-01    0.141E+00
RMM:   8    -0.107655293192E+04    0.14401E-02   -0.52918E-03  2123   0.154E-01    0.114E+00
RMM:   9    -0.107655168366E+04    0.12483E-02   -0.38775E-03  2136   0.136E-01    0.762E-01
RMM:  10    -0.107655178467E+04   -0.10101E-03   -0.20897E-03  2181   0.104E-01    0.661E-01
RMM:  11    -0.107655127719E+04    0.50748E-03   -0.14261E-03  2037   0.825E-02    0.465E-01
RMM:  12    -0.107655165171E+04   -0.37452E-03   -0.11352E-03  2039   0.739E-02    0.536E-01
RMM:  13    -0.107655111628E+04    0.53543E-03   -0.59056E-04  2025   0.559E-02    0.220E-01
RMM:  14    -0.107655152001E+04   -0.40372E-03   -0.38178E-04  1992   0.395E-02    0.392E-01
RMM:  15    -0.107655125274E+04    0.26727E-03   -0.23004E-04  1886   0.332E-02    0.109E-01
RMM:  16    -0.107655144012E+04   -0.18738E-03   -0.10638E-04  1845   0.227E-02    0.123E-01
RMM:  17    -0.107655149235E+04   -0.52234E-04   -0.46138E-05  1707   0.161E-02    0.656E-02
RMM:  18    -0.107655154466E+04   -0.52311E-04   -0.14576E-05  1438   0.900E-03    0.434E-02
RMM:  19    -0.107655158142E+04   -0.36758E-04   -0.90961E-06  1353   0.685E-03    0.446E-02
RMM:  20    -0.107655163520E+04   -0.53780E-04   -0.64128E-06  1339   0.587E-03    0.289E-02
RMM:  21    -0.107655175155E+04   -0.11635E-03   -0.69747E-06  1402   0.553E-03    0.316E-02
RMM:  22    -0.107655182263E+04   -0.71084E-04   -0.60162E-06  1333   0.541E-03    0.370E-02
RMM:  23    -0.107655185434E+04   -0.31712E-04   -0.30278E-06  1258   0.425E-03    0.224E-02
RMM:  24    -0.107655189480E+04   -0.40461E-04   -0.15201E-06  1161   0.261E-03    0.114E-02
RMM:  25    -0.107655194636E+04   -0.51554E-04   -0.16865E-06  1195   0.269E-03    0.141E-02
RMM:  26    -0.107655198948E+04   -0.43119E-04   -0.15281E-06  1172   0.262E-03    0.122E-02
RMM:  27    -0.107655204803E+04   -0.58553E-04   -0.14867E-06  1147   0.206E-03    0.987E-03
RMM:  28    -0.107655209249E+04   -0.44464E-04   -0.13452E-06  1128   0.199E-03    0.836E-03
RMM:  29    -0.107655211916E+04   -0.26664E-04   -0.12216E-06  1115   0.206E-03    0.830E-03
RMM:  30    -0.107655215471E+04   -0.35552E-04   -0.14005E-06  1133   0.189E-03    0.405E-03
RMM:  31    -0.107655218627E+04   -0.31560E-04   -0.15569E-06  1136   0.168E-03    0.497E-03
RMM:  32    -0.107655219858E+04   -0.12314E-04   -0.90720E-07  1022   0.146E-03    0.306E-03
RMM:  33    -0.107655221120E+04   -0.12618E-04   -0.98870E-07  1061   0.126E-03    0.323E-03
RMM:  34    -0.107655222012E+04   -0.89131E-05   -0.87220E-07  1031   0.131E-03    0.149E-03
RMM:  35    -0.107655222373E+04   -0.36124E-05   -0.66298E-07   966   0.110E-03    0.107E-03
RMM:  36    -0.107655222573E+04   -0.19981E-05   -0.48590E-07   946   0.989E-04    0.996E-04
RMM:  37    -0.107655222722E+04   -0.14978E-05   -0.39738E-07   890   0.841E-04    0.983E-04
RMM:  38    -0.107655222801E+04   -0.78743E-06   -0.28814E-07   856   0.785E-04
   4 F= -.10834254E+04 E0= -.10834147E+04  d E =-.158836E+01  mag=    36.0003
 curvature:  -0.28 expect dE=-0.895E-01 dE for cont linesearch -0.436E-02
 ZBRENT: interpolating
 opt :   0.4150  next Energy= -1083.431300 (dE=-0.159E+01)
 bond charge predicted
       N       E                     dE             d eps       ncg     rms          rms(c)
DAV:   1    -0.107655310434E+04   -0.87712E-03   -0.22867E+00  1992   0.292E+00    0.660E-01
RMM:   2    -0.107655991923E+04   -0.68149E-02   -0.42569E-02  1941   0.496E-01    0.100E+00
RMM:   3    -0.107657028497E+04   -0.10366E-01   -0.15678E-02  2169   0.273E-01    0.259E+00
RMM:   4    -0.107655982410E+04    0.10461E-01   -0.78220E-03  2228   0.180E-01    0.912E-01
RMM:   5    -0.107655972272E+04    0.10138E-03   -0.31258E-03  2076   0.127E-01    0.510E-01
RMM:   6    -0.107655970194E+04    0.20782E-04   -0.10885E-03  2110   0.713E-02    0.465E-01
RMM:   7    -0.107655965262E+04    0.49321E-04   -0.67650E-04  2097   0.551E-02    0.419E-01
RMM:   8    -0.107655967625E+04   -0.23631E-04   -0.59187E-04  2139   0.528E-02    0.424E-01
RMM:   9    -0.107655940243E+04    0.27382E-03   -0.39540E-04  2043   0.425E-02    0.244E-01
RMM:  10    -0.107655951280E+04   -0.11037E-03   -0.27029E-04  2017   0.368E-02    0.214E-01
RMM:  11    -0.107655944466E+04    0.68135E-04   -0.16292E-04  1953   0.290E-02    0.154E-01
RMM:  12    -0.107655944107E+04    0.35961E-05   -0.89825E-05  1748   0.191E-02    0.124E-01
RMM:  13    -0.107655944420E+04   -0.31329E-05   -0.43486E-05  1650   0.147E-02    0.996E-02
RMM:  14    -0.107655944080E+04    0.34018E-05   -0.22022E-05  1432   0.103E-02    0.615E-02
RMM:  15    -0.107655946038E+04   -0.19585E-04   -0.11166E-05  1382   0.856E-03    0.309E-02
RMM:  16    -0.107655947357E+04   -0.13183E-04   -0.66006E-06  1318   0.611E-03    0.278E-02
RMM:  17    -0.107655948677E+04   -0.13199E-04   -0.21987E-06  1239   0.384E-03    0.150E-02
RMM:  18    -0.107655949583E+04   -0.90615E-05   -0.11953E-06  1149   0.263E-03    0.152E-02
RMM:  19    -0.107655950256E+04   -0.67331E-05   -0.92384E-07  1122   0.244E-03    0.951E-03
RMM:  20    -0.107655951793E+04   -0.15369E-04   -0.76497E-07  1099   0.200E-03    0.824E-03
RMM:  21    -0.107655953426E+04   -0.16331E-04   -0.80605E-07  1114   0.212E-03    0.887E-03
RMM:  22    -0.107655954122E+04   -0.69578E-05   -0.55324E-07  1037   0.178E-03    0.631E-03
RMM:  23    -0.107655954950E+04   -0.82775E-05   -0.31139E-07  1003   0.126E-03    0.417E-03
RMM:  24    -0.107655955753E+04   -0.80329E-05   -0.23123E-07   980   0.869E-04    0.329E-03
RMM:  25    -0.107655956553E+04   -0.80057E-05   -0.23760E-07   979   0.949E-04    0.417E-03
RMM:  26    -0.107655957122E+04   -0.56853E-05   -0.20622E-07   920   0.893E-04    0.336E-03
RMM:  27    -0.107655958069E+04   -0.94698E-05   -0.25126E-07   970   0.786E-04    0.234E-03
RMM:  28    -0.107655958805E+04   -0.73603E-05   -0.25521E-07   981   0.857E-04    0.298E-03
RMM:  29    -0.107655959203E+04   -0.39751E-05   -0.23328E-07   887   0.831E-04    0.188E-03
RMM:  30    -0.107655959613E+04   -0.41017E-05   -0.21996E-07   910   0.713E-04    0.130E-03
RMM:  31    -0.107655959866E+04   -0.25348E-05   -0.18588E-07   857   0.645E-04    0.105E-03
RMM:  32    -0.107655960084E+04   -0.21751E-05   -0.18919E-07   894   0.604E-04    0.671E-04
RMM:  33    -0.107655960211E+04   -0.12741E-05   -0.16328E-07   856   0.599E-04    0.517E-04
RMM:  34    -0.107655960265E+04   -0.53501E-06   -0.12213E-07   787   0.521E-04
   5 F= -.10834313E+04 E0= -.10834210E+04  d E =-.159435E+01  mag=    36.0001
 curvature:  -0.38 expect dE=-0.810E-01 dE for cont linesearch -0.202E-03
 trial: gam= 0.68950 g(F)=  0.210E+00 g(S)=  0.426E-02 ort =-0.133E-01 (trialstep = 0.826E+00)
 search vector abs. value=  0.352E+00
 bond charge predicted
       N       E                     dE             d eps       ncg     rms          rms(c)
DAV:   1    -0.107632889557E+04    0.23071E+00   -0.80288E+01  1848   0.168E+01    0.387E+00
RMM:   2    -0.107660750756E+04   -0.27861E+00   -0.18300E+00  1992   0.305E+00    0.523E+00
RMM:   3    -0.107674279181E+04   -0.13528E+00   -0.54956E-01  2195   0.160E+00    0.107E+01
RMM:   4    -0.107660930205E+04    0.13349E+00   -0.18664E-01  2241   0.913E-01    0.462E+00
RMM:   5    -0.107656939735E+04    0.39905E-01   -0.10333E-01  2052   0.722E-01    0.253E+00
RMM:   6    -0.107657862240E+04   -0.92250E-02   -0.37194E-02  2188   0.386E-01    0.275E+00
RMM:   7    -0.107658568794E+04   -0.70655E-02   -0.26577E-02  2090   0.340E-01    0.320E+00
RMM:   8    -0.107656923605E+04    0.16452E-01   -0.13662E-02  2074   0.249E-01    0.170E+00
RMM:   9    -0.107657132665E+04   -0.20906E-02   -0.89027E-03  2108   0.187E-01    0.146E+00
RMM:  10    -0.107657208218E+04   -0.75553E-03   -0.70846E-03  2108   0.172E-01    0.136E+00
RMM:  11    -0.107657477135E+04   -0.26892E-02   -0.66501E-03  2091   0.160E-01    0.154E+00
RMM:  12    -0.107657150393E+04    0.32674E-02   -0.59824E-03  2075   0.159E-01    0.830E-01
RMM:  13    -0.107657278794E+04   -0.12840E-02   -0.41392E-03  2053   0.145E-01    0.904E-01
RMM:  14    -0.107657251463E+04    0.27331E-03   -0.33426E-03  2062   0.123E-01    0.877E-01
RMM:  15    -0.107657290255E+04   -0.38793E-03   -0.21694E-03  2060   0.924E-02    0.908E-01
RMM:  16    -0.107657180980E+04    0.10928E-02   -0.10474E-03  2000   0.728E-02    0.610E-01
RMM:  17    -0.107657185102E+04   -0.41221E-04   -0.45059E-04  2003   0.487E-02    0.450E-01
RMM:  18    -0.107657189236E+04   -0.41337E-04   -0.34485E-04  2000   0.413E-02    0.188E-01
RMM:  19    -0.107657218707E+04   -0.29471E-03   -0.21835E-04  1975   0.342E-02    0.159E-01
RMM:  20    -0.107657230356E+04   -0.11649E-03   -0.11746E-04  1908   0.247E-02    0.125E-01
RMM:  21    -0.107657247458E+04   -0.17102E-03   -0.39338E-05  1739   0.146E-02    0.634E-02
RMM:  22    -0.107657269503E+04   -0.22045E-03   -0.26594E-05  1685   0.105E-02    0.703E-02
RMM:  23    -0.107657278582E+04   -0.90785E-04   -0.16229E-05  1456   0.889E-03    0.526E-02
RMM:  24    -0.107657298208E+04   -0.19627E-03   -0.94417E-06  1476   0.612E-03    0.252E-02
RMM:  25    -0.107657324070E+04   -0.25862E-03   -0.10689E-05  1581   0.544E-03    0.341E-02
RMM:  26    -0.107657338110E+04   -0.14040E-03   -0.87747E-06  1439   0.580E-03    0.339E-02
RMM:  27    -0.107657350467E+04   -0.12358E-03   -0.55492E-06  1407   0.462E-03    0.170E-02
RMM:  28    -0.107657362391E+04   -0.11923E-03   -0.39687E-06  1350   0.311E-03    0.156E-02
RMM:  29    -0.107657382203E+04   -0.19812E-03   -0.70806E-06  1528   0.343E-03    0.936E-03
RMM:  30    -0.107657393901E+04   -0.11698E-03   -0.39117E-06  1363   0.268E-03    0.111E-02
RMM:  31    -0.107657397713E+04   -0.38123E-04   -0.19151E-06  1181   0.241E-03    0.109E-02
RMM:  32    -0.107657402110E+04   -0.43966E-04   -0.14823E-06  1117   0.209E-03    0.523E-03
RMM:  33    -0.107657411437E+04   -0.93272E-04   -0.35124E-06  1341   0.212E-03    0.398E-03
RMM:  34    -0.107657415404E+04   -0.39672E-04   -0.15912E-06  1116   0.189E-03    0.277E-03
RMM:  35    -0.107657417659E+04   -0.22552E-04   -0.12475E-06  1064   0.143E-03    0.217E-03
RMM:  36    -0.107657420505E+04   -0.28462E-04   -0.12102E-06  1068   0.146E-03    0.144E-03
RMM:  37    -0.107657422933E+04   -0.24273E-04   -0.14484E-06  1097   0.142E-03    0.100E-03
RMM:  38    -0.107657424147E+04   -0.12137E-04   -0.10057E-06  1030   0.132E-03    0.795E-04
RMM:  39    -0.107657424756E+04   -0.60979E-05   -0.68381E-07   927   0.112E-03    0.486E-04
RMM:  40    -0.107657425394E+04   -0.63745E-05   -0.62828E-07   952   0.101E-03    0.505E-04
RMM:  41    -0.107657425742E+04   -0.34829E-05   -0.46249E-07   929   0.943E-04    0.409E-04
RMM:  42    -0.107657425962E+04   -0.22029E-05   -0.35781E-07   882   0.791E-04    0.239E-04
RMM:  43    -0.107657426155E+04   -0.19268E-05   -0.28710E-07   850   0.740E-04    0.268E-04
RMM:  44    -0.107657426247E+04   -0.92103E-06   -0.21553E-07   827   0.650E-04
   6 F= -.10834533E+04 E0= -.10834422E+04  d E =-.219772E-01  mag=    36.0173
 trial-energy change:   -0.021977  1 .order   -0.020708   -0.169137    0.127720
 step:   0.4758(harm=  0.4706)  dis= 0.02078  next Energy= -1083.480299 (dE=-0.490E-01)
 bond charge predicted
       N       E                     dE             d eps       ncg     rms          rms(c)
DAV:   1    -0.107656347676E+04    0.10785E-01   -0.14467E+01  1848   0.712E+00    0.161E+00
RMM:   2    -0.107660830524E+04   -0.44828E-01   -0.28704E-01  2065   0.121E+00    0.320E+00
RMM:   3    -0.107663343472E+04   -0.25129E-01   -0.87753E-02  2206   0.641E-01    0.315E+00
RMM:   4    -0.107663424688E+04   -0.81216E-03   -0.42099E-02  2175   0.447E-01    0.369E+00
RMM:   5    -0.107660347790E+04    0.30769E-01   -0.17244E-02  2117   0.279E-01    0.119E+00
RMM:   6    -0.107660706198E+04   -0.35841E-02   -0.69281E-03  2109   0.167E-01    0.139E+00
RMM:   7    -0.107660428777E+04    0.27742E-02   -0.38977E-03  2202   0.125E-01    0.818E-01
RMM:   8    -0.107660467526E+04   -0.38749E-03   -0.26994E-03  2107   0.108E-01    0.902E-01
RMM:   9    -0.107660515781E+04   -0.48255E-03   -0.27887E-03  2059   0.111E-01    0.913E-01
RMM:  10    -0.107660378045E+04    0.13774E-02   -0.17338E-03  2074   0.905E-02    0.481E-01
RMM:  11    -0.107660458957E+04   -0.80912E-03   -0.12972E-03  2079   0.784E-02    0.681E-01
RMM:  12    -0.107660410740E+04    0.48217E-03   -0.10795E-03  2047   0.670E-02    0.547E-01
RMM:  13    -0.107660379465E+04    0.31275E-03   -0.55553E-04  2052   0.516E-02    0.300E-01
RMM:  14    -0.107660376420E+04    0.30448E-04   -0.28706E-04  1951   0.402E-02    0.170E-01
RMM:  15    -0.107660385884E+04   -0.94646E-04   -0.10810E-04  1914   0.238E-02    0.146E-01
RMM:  16    -0.107660385266E+04    0.61839E-05   -0.52440E-05  1698   0.170E-02    0.654E-02
RMM:  17    -0.107660390645E+04   -0.53789E-04   -0.17470E-05  1484   0.953E-03    0.558E-02
RMM:  18    -0.107660392263E+04   -0.16178E-04   -0.10699E-05  1359   0.771E-03    0.393E-02
RMM:  19    -0.107660396439E+04   -0.41762E-04   -0.58993E-06  1336   0.581E-03    0.255E-02
RMM:  20    -0.107660401496E+04   -0.50568E-04   -0.75360E-06  1355   0.605E-03    0.380E-02
RMM:  21    -0.107660404493E+04   -0.29975E-04   -0.54403E-06  1315   0.574E-03    0.217E-02
RMM:  22    -0.107660407397E+04   -0.29036E-04   -0.18107E-06  1202   0.318E-03    0.147E-02
RMM:  23    -0.107660410405E+04   -0.30081E-04   -0.15163E-06  1169   0.269E-03    0.160E-02
RMM:  24    -0.107660412807E+04   -0.24018E-04   -0.16079E-06  1208   0.296E-03    0.112E-02
RMM:  25    -0.107660417848E+04   -0.50415E-04   -0.13651E-06  1142   0.212E-03    0.727E-03
RMM:  26    -0.107660421173E+04   -0.33244E-04   -0.10282E-06  1106   0.189E-03    0.638E-03
RMM:  27    -0.107660423185E+04   -0.20120E-04   -0.87484E-07  1081   0.176E-03    0.748E-03
RMM:  28    -0.107660424616E+04   -0.14317E-04   -0.67807E-07  1019   0.163E-03    0.575E-03
RMM:  29    -0.107660427033E+04   -0.24167E-04   -0.82664E-07  1068   0.133E-03    0.367E-03
RMM:  30    -0.107660428833E+04   -0.18004E-04   -0.77282E-07  1034   0.148E-03    0.558E-03
RMM:  31    -0.107660430205E+04   -0.13717E-04   -0.77249E-07  1024   0.142E-03    0.311E-03
RMM:  32    -0.107660431178E+04   -0.97266E-05   -0.62643E-07   995   0.118E-03    0.193E-03
RMM:  33    -0.107660431836E+04   -0.65843E-05   -0.50294E-07   960   0.983E-04    0.124E-03
RMM:  34    -0.107660432472E+04   -0.63601E-05   -0.47882E-07   957   0.919E-04    0.999E-04
RMM:  35    -0.107660432989E+04   -0.51720E-05   -0.46045E-07   950   0.891E-04    0.972E-04
RMM:  36    -0.107660433250E+04   -0.26088E-05   -0.37139E-07   907   0.836E-04    0.494E-04
RMM:  37    -0.107660433406E+04   -0.15593E-05   -0.28474E-07   843   0.719E-04    0.554E-04
RMM:  38    -0.107660433526E+04   -0.12008E-05   -0.22352E-07   820   0.658E-04    0.443E-04
RMM:  39    -0.107660433607E+04   -0.80892E-06   -0.16845E-07   782   0.581E-04
   7 F= -.10834803E+04 E0= -.10834697E+04  d E =-.489335E-01  mag=    36.0032
 curvature:  -0.40 expect dE=-0.391E-01 dE for cont linesearch -0.172E-06
 trial: gam= 0.44312 g(F)=  0.931E-01 g(S)=  0.362E-02 ort = 0.387E-03 (trialstep = 0.756E+00)
 search vector abs. value=  0.166E+00
 bond charge predicted
       N       E                     dE             d eps       ncg     rms          rms(c)
DAV:   1    -0.107654717850E+04    0.57157E-01   -0.30343E+01  1848   0.106E+01    0.226E+00
RMM:   2    -0.107666737040E+04   -0.12019E+00   -0.65032E-01  2021   0.184E+00    0.405E+00
RMM:   3    -0.107670824252E+04   -0.40872E-01   -0.20072E-01  2199   0.102E+00    0.778E+00
RMM:   4    -0.107665765335E+04    0.50589E-01   -0.84340E-02  2186   0.643E-01    0.380E+00
RMM:   5    -0.107663500129E+04    0.22652E-01   -0.41633E-02  2057   0.468E-01    0.205E+00
RMM:   6    -0.107663557464E+04   -0.57335E-03   -0.15730E-02  2159   0.255E-01    0.193E+00
RMM:   7    -0.107663158798E+04    0.39867E-02   -0.68171E-03  2113   0.181E-01    0.126E+00
RMM:   8    -0.107663312153E+04   -0.15335E-02   -0.56055E-03  2091   0.155E-01    0.136E+00
RMM:   9    -0.107663169368E+04    0.14278E-02   -0.46401E-03  2134   0.139E-01    0.115E+00
RMM:  10    -0.107663077201E+04    0.92167E-03   -0.38364E-03  2077   0.135E-01    0.757E-01
RMM:  11    -0.107663223286E+04   -0.14608E-02   -0.28608E-03  2060   0.108E-01    0.104E+00
RMM:  12    -0.107663081272E+04    0.14201E-02   -0.20536E-03  2033   0.984E-02    0.668E-01
RMM:  13    -0.107663075422E+04    0.58507E-04   -0.12318E-03  2016   0.790E-02    0.541E-01
RMM:  14    -0.107663097860E+04   -0.22439E-03   -0.65815E-04  2083   0.559E-02    0.551E-01
RMM:  15    -0.107663060497E+04    0.37363E-03   -0.48230E-04  1970   0.509E-02    0.297E-01
RMM:  16    -0.107663074114E+04   -0.13616E-03   -0.20195E-04  1919   0.326E-02    0.212E-01
RMM:  17    -0.107663076397E+04   -0.22837E-04   -0.79503E-05  1792   0.203E-02    0.158E-01
RMM:  18    -0.107663083193E+04   -0.67959E-04   -0.40305E-05  1717   0.143E-02    0.735E-02
RMM:  19    -0.107663093046E+04   -0.98527E-04   -0.39662E-05  1700   0.140E-02    0.828E-02
RMM:  20    -0.107663100386E+04   -0.73397E-04   -0.27934E-05  1610   0.123E-02    0.594E-02
RMM:  21    -0.107663107503E+04   -0.71169E-04   -0.87423E-06  1392   0.701E-03    0.291E-02
RMM:  22    -0.107663110992E+04   -0.34897E-04   -0.48411E-06  1313   0.496E-03    0.306E-02
RMM:  23    -0.107663113816E+04   -0.28234E-04   -0.31209E-06  1257   0.422E-03    0.239E-02
RMM:  24    -0.107663123774E+04   -0.99586E-04   -0.40043E-06  1345   0.368E-03    0.191E-02
RMM:  25    -0.107663131534E+04   -0.77594E-04   -0.37379E-06  1329   0.386E-03    0.223E-02
RMM:  26    -0.107663134656E+04   -0.31226E-04   -0.22973E-06  1233   0.336E-03    0.153E-02
RMM:  27    -0.107663138948E+04   -0.42916E-04   -0.15448E-06  1146   0.233E-03    0.944E-03
RMM:  28    -0.107663144328E+04   -0.53797E-04   -0.19410E-06  1198   0.233E-03    0.107E-02
RMM:  29    -0.107663147410E+04   -0.30825E-04   -0.17372E-06  1169   0.253E-03    0.101E-02
RMM:  30    -0.107663152376E+04   -0.49660E-04   -0.23416E-06  1241   0.224E-03    0.493E-03
RMM:  31    -0.107663155198E+04   -0.28218E-04   -0.15351E-06  1095   0.181E-03    0.492E-03
RMM:  32    -0.107663156857E+04   -0.16595E-04   -0.99919E-07  1041   0.151E-03    0.399E-03
RMM:  33    -0.107663158733E+04   -0.18759E-04   -0.11148E-06  1072   0.139E-03    0.282E-03
RMM:  34    -0.107663159997E+04   -0.12637E-04   -0.96798E-07  1042   0.137E-03    0.161E-03
RMM:  35    -0.107663160512E+04   -0.51536E-05   -0.65472E-07   964   0.114E-03    0.907E-04
RMM:  36    -0.107663160901E+04   -0.38893E-05   -0.48880E-07   934   0.971E-04    0.578E-04
RMM:  37    -0.107663161292E+04   -0.39112E-05   -0.42405E-07   912   0.872E-04    0.515E-04
RMM:  38    -0.107663161527E+04   -0.23426E-05   -0.31707E-07   873   0.802E-04    0.273E-04
RMM:  39    -0.107663161695E+04   -0.16856E-05   -0.24781E-07   836   0.681E-04    0.350E-04
RMM:  40    -0.107663161835E+04   -0.13952E-05   -0.19378E-07   825   0.640E-04    0.215E-04
RMM:  41    -0.107663161942E+04   -0.10731E-05   -0.15903E-07   812   0.565E-04    0.214E-04
RMM:  42    -0.107663161992E+04   -0.50393E-06   -0.11065E-07   748   0.524E-04
   8 F= -.10835085E+04 E0= -.10834974E+04  d E =-.282302E-01  mag=    36.0119
 trial-energy change:   -0.028230  1 .order   -0.028255   -0.073244    0.016734
 step:   0.6153(harm=  0.6153)  dis= 0.01485  next Energy= -1083.510087 (dE=-0.298E-01)
 bond charge predicted
       N       E                     dE             d eps       ncg     rms          rms(c)
DAV:   1    -0.107663061267E+04    0.10067E-02   -0.10509E+00  1956   0.197E+00    0.411E-01
RMM:   2    -0.107663483434E+04   -0.42217E-02   -0.20058E-02  2086   0.321E-01    0.132E+00
RMM:   3    -0.107663396543E+04    0.86891E-03   -0.55859E-03  2214   0.168E-01    0.901E-01
RMM:   4    -0.107663487755E+04   -0.91212E-03   -0.31507E-03  2116   0.134E-01    0.883E-01
RMM:   5    -0.107663321391E+04    0.16636E-02   -0.13350E-03  2068   0.837E-02    0.416E-01
RMM:   6    -0.107663330092E+04   -0.87009E-04   -0.47937E-04  2029   0.495E-02    0.278E-01
RMM:   7    -0.107663346000E+04   -0.15907E-03   -0.31535E-04  2104   0.359E-02    0.347E-01
RMM:   8    -0.107663327059E+04    0.18940E-03   -0.22553E-04  2036   0.322E-02    0.192E-01
RMM:   9    -0.107663336307E+04   -0.92478E-04   -0.17484E-04  1956   0.284E-02    0.247E-01
RMM:  10    -0.107663328435E+04    0.78722E-04   -0.13562E-04  1858   0.249E-02    0.159E-01
RMM:  11    -0.107663327681E+04    0.75431E-05   -0.81261E-05  1800   0.210E-02    0.883E-02
RMM:  12    -0.107663329943E+04   -0.22628E-04   -0.39533E-05  1636   0.143E-02    0.873E-02
RMM:  13    -0.107663330320E+04   -0.37636E-05   -0.27823E-05  1464   0.113E-02    0.769E-02
RMM:  14    -0.107663330195E+04    0.12492E-05   -0.14599E-05  1365   0.892E-03    0.397E-02
RMM:  15    -0.107663330711E+04   -0.51571E-05   -0.57852E-06  1319   0.618E-03    0.223E-02
RMM:  16    -0.107663331377E+04   -0.66635E-05   -0.14738E-06  1191   0.307E-03    0.151E-02
RMM:  17    -0.107663331697E+04   -0.32015E-05   -0.14336E-06  1174   0.292E-03    0.165E-02
RMM:  18    -0.107663332325E+04   -0.62781E-05   -0.90443E-07  1130   0.240E-03    0.714E-03
RMM:  19    -0.107663333037E+04   -0.71168E-05   -0.70870E-07  1093   0.198E-03    0.103E-02
RMM:  20    -0.107663333207E+04   -0.17077E-05   -0.51429E-07  1033   0.188E-03    0.561E-03
RMM:  21    -0.107663333485E+04   -0.27814E-05   -0.20856E-07   958   0.103E-03    0.421E-03
RMM:  22    -0.107663333772E+04   -0.28683E-05   -0.17307E-07   922   0.894E-04    0.501E-03
RMM:  23    -0.107663334023E+04   -0.25078E-05   -0.18006E-07   920   0.966E-04    0.339E-03
RMM:  24    -0.107663334440E+04   -0.41717E-05   -0.15671E-07   943   0.760E-04    0.282E-03
RMM:  25    -0.107663334636E+04   -0.19543E-05   -0.12558E-07   894   0.765E-04    0.324E-03
RMM:  26    -0.107663334799E+04   -0.16353E-05   -0.99905E-08   793   0.651E-04    0.167E-03
RMM:  27    -0.107663335010E+04   -0.21029E-05   -0.91208E-08   828   0.540E-04    0.156E-03
RMM:  28    -0.107663335125E+04   -0.11574E-05   -0.75343E-08   765   0.544E-04    0.180E-03
RMM:  29    -0.107663335269E+04   -0.14351E-05   -0.77202E-08   781   0.512E-04    0.108E-03
RMM:  30    -0.107663335440E+04   -0.17126E-05   -0.96796E-08   828   0.499E-04    0.729E-04
RMM:  31    -0.107663335520E+04   -0.80168E-06   -0.78759E-08   783   0.479E-04
   9 F= -.10835101E+04 E0= -.10834991E+04  d E =-.297880E-01  mag=    36.0099
 curvature:  -0.53 expect dE=-0.450E-01 dE for cont linesearch -0.115E-07
 trial: gam= 0.90289 g(F)=  0.833E-01 g(S)=  0.196E-02 ort = 0.603E-04 (trialstep = 0.548E+00)
 search vector abs. value=  0.221E+00
 bond charge predicted
       N       E                     dE             d eps       ncg     rms          rms(c)
DAV:   1    -0.107660443889E+04    0.28916E-01   -0.20776E+01  1848   0.871E+00    0.183E+00
RMM:   2    -0.107668830397E+04   -0.83865E-01   -0.40423E-01  2017   0.148E+00    0.387E+00
RMM:   3    -0.107669901063E+04   -0.10707E-01   -0.13278E-01  2188   0.829E-01    0.495E+00
RMM:   4    -0.107668639654E+04    0.12614E-01   -0.57200E-02  2182   0.501E-01    0.378E+00
RMM:   5    -0.107666072521E+04    0.25671E-01   -0.25564E-02  2067   0.361E-01    0.162E+00
RMM:   6    -0.107665872895E+04    0.19963E-02   -0.10457E-02  2088   0.216E-01    0.103E+00
RMM:   7    -0.107666102293E+04   -0.22940E-02   -0.61430E-03  2147   0.154E-01    0.132E+00
RMM:   8    -0.107665812707E+04    0.28959E-02   -0.35137E-03  2067   0.127E-01    0.646E-01
RMM:   9    -0.107666067952E+04   -0.25525E-02   -0.29151E-03  2090   0.108E-01    0.111E+00
RMM:  10    -0.107665920740E+04    0.14721E-02   -0.25047E-03  2108   0.103E-01    0.739E-01
RMM:  11    -0.107665966413E+04   -0.45672E-03   -0.16991E-03  2052   0.904E-02    0.676E-01
RMM:  12    -0.107665942966E+04    0.23446E-03   -0.11628E-03  2051   0.769E-02    0.540E-01
RMM:  13    -0.107665947514E+04   -0.45475E-04   -0.89682E-04  1999   0.644E-02    0.422E-01
RMM:  14    -0.107665954088E+04   -0.65740E-04   -0.47396E-04  2019   0.518E-02    0.291E-01
RMM:  15    -0.107665962398E+04   -0.83106E-04   -0.28030E-04  1988   0.383E-02    0.260E-01
RMM:  16    -0.107665960148E+04    0.22504E-04   -0.10440E-04  1876   0.246E-02    0.183E-01
RMM:  17    -0.107665963195E+04   -0.30473E-04   -0.41667E-05  1686   0.143E-02    0.138E-01
RMM:  18    -0.107665964365E+04   -0.11695E-04   -0.28175E-05  1597   0.119E-02    0.847E-02
RMM:  19    -0.107665971027E+04   -0.66619E-04   -0.20678E-05  1590   0.101E-02    0.575E-02
RMM:  20    -0.107665974557E+04   -0.35307E-04   -0.17568E-05  1461   0.968E-03    0.488E-02
RMM:  21    -0.107665978079E+04   -0.35217E-04   -0.78779E-06  1353   0.690E-03    0.312E-02
RMM:  22    -0.107665980214E+04   -0.21353E-04   -0.30112E-06  1260   0.428E-03    0.210E-02
RMM:  23    -0.107665982909E+04   -0.26944E-04   -0.27995E-06  1254   0.369E-03    0.229E-02
RMM:  24    -0.107665986648E+04   -0.37393E-04   -0.29180E-06  1277   0.396E-03    0.153E-02
RMM:  25    -0.107665991906E+04   -0.52582E-04   -0.23920E-06  1237   0.291E-03    0.160E-02
RMM:  26    -0.107665994402E+04   -0.24953E-04   -0.14061E-06  1136   0.256E-03    0.119E-02
RMM:  27    -0.107665995724E+04   -0.13223E-04   -0.11997E-06  1137   0.233E-03    0.111E-02
RMM:  28    -0.107665998395E+04   -0.26714E-04   -0.11975E-06  1114   0.206E-03    0.919E-03
RMM:  29    -0.107666001417E+04   -0.30216E-04   -0.16928E-06  1165   0.212E-03    0.873E-03
RMM:  30    -0.107666002545E+04   -0.11286E-04   -0.10994E-06  1062   0.212E-03    0.687E-03
RMM:  31    -0.107666003710E+04   -0.11644E-04   -0.83974E-07  1035   0.148E-03    0.313E-03
RMM:  32    -0.107666004584E+04   -0.87381E-05   -0.66764E-07   999   0.127E-03    0.264E-03
RMM:  33    -0.107666005272E+04   -0.68822E-05   -0.60244E-07  1009   0.108E-03    0.202E-03
RMM:  34    -0.107666005791E+04   -0.51952E-05   -0.52491E-07   993   0.104E-03    0.185E-03
RMM:  35    -0.107666006065E+04   -0.27383E-05   -0.41053E-07   934   0.894E-04    0.105E-03
RMM:  36    -0.107666006216E+04   -0.15028E-05   -0.29612E-07   852   0.784E-04    0.728E-04
RMM:  37    -0.107666006315E+04   -0.99749E-06   -0.21814E-07   822   0.661E-04
  10 F= -.10835371E+04 E0= -.10835256E+04  d E =-.270022E-01  mag=    36.0300
 trial-energy change:   -0.027002  1 .order   -0.027051   -0.046714   -0.007388
 step:   0.6507(harm=  0.6507)  dis= 0.01974  next Energy= -1083.537809 (dE=-0.277E-01)
 bond charge predicted
       N       E                     dE             d eps       ncg     rms          rms(c)
DAV:   1    -0.107665880550E+04    0.12567E-02   -0.73355E-01  1968   0.164E+00    0.340E-01
RMM:   2    -0.107666179842E+04   -0.29929E-02   -0.13341E-02  2040   0.267E-01    0.927E-01
RMM:   3    -0.107666131048E+04    0.48794E-03   -0.42401E-03  2187   0.150E-01    0.899E-01
RMM:   4    -0.107666162785E+04   -0.31737E-03   -0.20895E-03  2147   0.103E-01    0.724E-01
RMM:   5    -0.107666049359E+04    0.11343E-02   -0.98691E-04  2020   0.718E-02    0.305E-01
RMM:   6    -0.107666052463E+04   -0.31043E-04   -0.26108E-04  1997   0.352E-02    0.121E-01
RMM:   7    -0.107666079973E+04   -0.27509E-03   -0.22038E-04  2101   0.293E-02    0.310E-01
RMM:   8    -0.107666056341E+04    0.23631E-03   -0.13956E-04  1933   0.245E-02    0.119E-01
RMM:   9    -0.107666066339E+04   -0.99978E-04   -0.10069E-04  1793   0.203E-02    0.192E-01
RMM:  10    -0.107666063510E+04    0.28286E-04   -0.87779E-05  1794   0.197E-02    0.134E-01
RMM:  11    -0.107666061973E+04    0.15370E-04   -0.49362E-05  1681   0.164E-02    0.667E-02
RMM:  12    -0.107666063944E+04   -0.19706E-04   -0.20427E-05  1483   0.108E-02    0.500E-02
RMM:  13    -0.107666065141E+04   -0.11965E-04   -0.13942E-05  1379   0.866E-03    0.616E-02
RMM:  14    -0.107666065899E+04   -0.75836E-05   -0.99270E-06  1338   0.711E-03    0.621E-02
RMM:  15    -0.107666065340E+04    0.55919E-05   -0.44394E-06  1273   0.512E-03    0.276E-02
RMM:  16    -0.107666065895E+04   -0.55550E-05   -0.16832E-06  1213   0.326E-03    0.211E-02
RMM:  17    -0.107666066151E+04   -0.25592E-05   -0.99449E-07  1126   0.249E-03    0.178E-02
RMM:  18    -0.107666066403E+04   -0.25183E-05   -0.89481E-07  1094   0.232E-03    0.101E-02
RMM:  19    -0.107666066921E+04   -0.51783E-05   -0.72750E-07  1088   0.208E-03    0.141E-02
RMM:  20    -0.107666067202E+04   -0.28076E-05   -0.55191E-07  1041   0.190E-03    0.106E-02
RMM:  21    -0.107666067507E+04   -0.30520E-05   -0.25580E-07   970   0.126E-03    0.431E-03
RMM:  22    -0.107666067732E+04   -0.22501E-05   -0.13723E-07   906   0.762E-04    0.348E-03
RMM:  23    -0.107666067869E+04   -0.13743E-05   -0.12067E-07   865   0.808E-04    0.362E-03
RMM:  24    -0.107666068212E+04   -0.34290E-05   -0.12884E-07   917   0.736E-04    0.228E-03
RMM:  25    -0.107666068541E+04   -0.32876E-05   -0.13131E-07   944   0.676E-04    0.223E-03
RMM:  26    -0.107666068670E+04   -0.12902E-05   -0.10029E-07   792   0.657E-04    0.233E-03
RMM:  27    -0.107666068803E+04   -0.13278E-05   -0.77714E-08   732   0.540E-04    0.150E-03
RMM:  28    -0.107666068996E+04   -0.19294E-05   -0.92363E-08   839   0.503E-04    0.116E-03
RMM:  29    -0.107666069108E+04   -0.11262E-05   -0.81839E-08   787   0.536E-04    0.160E-03
RMM:  30    -0.107666069218E+04   -0.10986E-05   -0.82530E-08   739   0.503E-04    0.732E-04
RMM:  31    -0.107666069295E+04   -0.77183E-06   -0.75860E-08   770   0.467E-04
  11 F= -.10835378E+04 E0= -.10835262E+04  d E =-.276886E-01  mag=    36.0346
 curvature:  -0.84 expect dE=-0.502E-01 dE for cont linesearch -0.109E-07
 trial: gam= 0.69356 g(F)=  0.586E-01 g(S)=  0.927E-03 ort =-0.533E-04 (trialstep = 0.568E+00)
 search vector abs. value=  0.166E+00
 bond charge predicted
       N       E                     dE             d eps       ncg     rms          rms(c)
DAV:   1    -0.107663556487E+04    0.25127E-01   -0.16752E+01  1848   0.795E+00    0.153E+00
RMM:   2    -0.107669743486E+04   -0.61870E-01   -0.31396E-01  2030   0.130E+00    0.356E+00
RMM:   3    -0.107669633168E+04    0.11032E-02   -0.96346E-02  2202   0.692E-01    0.332E+00
RMM:   4    -0.107670445321E+04   -0.81215E-02   -0.43379E-02  2210   0.422E-01    0.396E+00
RMM:   5    -0.107667595315E+04    0.28500E-01   -0.17789E-02  2096   0.303E-01    0.129E+00
RMM:   6    -0.107667620541E+04   -0.25226E-03   -0.72426E-03  2045   0.186E-01    0.772E-01
RMM:   7    -0.107668064285E+04   -0.44374E-02   -0.48796E-03  2162   0.132E-01    0.152E+00
RMM:   8    -0.107667590965E+04    0.47332E-02   -0.29237E-03  2089   0.114E-01    0.571E-01
RMM:   9    -0.107667770815E+04   -0.17985E-02   -0.20723E-03  2079   0.875E-02    0.850E-01
RMM:  10    -0.107667694501E+04    0.76314E-03   -0.16866E-03  2080   0.867E-02    0.542E-01
RMM:  11    -0.107667759131E+04   -0.64630E-03   -0.13091E-03  2058   0.784E-02    0.637E-01
RMM:  12    -0.107667718649E+04    0.40482E-03   -0.81250E-04  2032   0.642E-02    0.443E-01
RMM:  13    -0.107667741300E+04   -0.22650E-03   -0.75271E-04  1996   0.588E-02    0.475E-01
RMM:  14    -0.107667727560E+04    0.13740E-03   -0.33037E-04  2046   0.437E-02    0.264E-01
RMM:  15    -0.107667732315E+04   -0.47558E-04   -0.15727E-04  1957   0.284E-02    0.202E-01
RMM:  16    -0.107667734021E+04   -0.17057E-04   -0.85123E-05  1800   0.210E-02    0.130E-01
RMM:  17    -0.107667738346E+04   -0.43248E-04   -0.29697E-05  1606   0.122E-02    0.109E-01
RMM:  18    -0.107667738738E+04   -0.39220E-05   -0.17835E-05  1430   0.972E-03    0.680E-02
RMM:  19    -0.107667742225E+04   -0.34871E-04   -0.11837E-05  1431   0.787E-03    0.479E-02
RMM:  20    -0.107667747444E+04   -0.52191E-04   -0.96389E-06  1425   0.725E-03    0.400E-02
RMM:  21    -0.107667749850E+04   -0.24061E-04   -0.77370E-06  1342   0.643E-03    0.368E-02
RMM:  22    -0.107667751479E+04   -0.16285E-04   -0.33672E-06  1276   0.468E-03    0.191E-02
RMM:  23    -0.107667753388E+04   -0.19094E-04   -0.16012E-06  1187   0.275E-03    0.151E-02
RMM:  24    -0.107667755107E+04   -0.17183E-04   -0.15957E-06  1200   0.309E-03    0.146E-02
RMM:  25    -0.107667758785E+04   -0.36780E-04   -0.13770E-06  1145   0.244E-03    0.950E-03
RMM:  26    -0.107667760907E+04   -0.21227E-04   -0.99295E-07  1097   0.219E-03    0.100E-02
RMM:  27    -0.107667761943E+04   -0.10356E-04   -0.75575E-07  1064   0.190E-03    0.902E-03
RMM:  28    -0.107667764064E+04   -0.21209E-04   -0.74012E-07  1064   0.155E-03    0.566E-03
RMM:  29    -0.107667766544E+04   -0.24806E-04   -0.97588E-07  1093   0.148E-03    0.415E-03
RMM:  30    -0.107667767650E+04   -0.11053E-04   -0.68376E-07  1020   0.146E-03    0.425E-03
RMM:  31    -0.107667768235E+04   -0.58500E-05   -0.50982E-07   960   0.124E-03    0.332E-03
RMM:  32    -0.107667769197E+04   -0.96231E-05   -0.53176E-07  1018   0.111E-03    0.237E-03
RMM:  33    -0.107667769960E+04   -0.76319E-05   -0.52094E-07   995   0.105E-03    0.145E-03
RMM:  34    -0.107667770326E+04   -0.36533E-05   -0.40360E-07   954   0.906E-04    0.918E-04
RMM:  35    -0.107667770560E+04   -0.23459E-05   -0.31654E-07   893   0.779E-04    0.722E-04
RMM:  36    -0.107667770722E+04   -0.16198E-05   -0.25215E-07   853   0.712E-04    0.489E-04
RMM:  37    -0.107667770814E+04   -0.91753E-06   -0.18738E-07   820   0.625E-04
  12 F= -.10835559E+04 E0= -.10835440E+04  d E =-.181571E-01  mag=    36.0521
 trial-energy change:   -0.018157  1 .order   -0.018236   -0.033837   -0.002635
 step:   0.6172(harm=  0.6164)  dis= 0.01419  next Energy= -1083.556023 (dE=-0.183E-01)
 bond charge predicted
       N       E                     dE             d eps       ncg     rms          rms(c)
DAV:   1    -0.107667741767E+04    0.28955E-03   -0.12358E-01  1992   0.680E-01    0.131E-01
RMM:   2    -0.107667784845E+04   -0.43078E-03   -0.22135E-03  2057   0.108E-01    0.373E-01
RMM:   3    -0.107667771854E+04    0.12991E-03   -0.65431E-04  2183   0.585E-02    0.282E-01
RMM:   4    -0.107667785921E+04   -0.14067E-03   -0.28984E-04  2109   0.383E-02    0.306E-01
RMM:   5    -0.107667763322E+04    0.22599E-03   -0.13287E-04  1840   0.263E-02    0.959E-02
RMM:   6    -0.107667768855E+04   -0.55331E-04   -0.38299E-05  1647   0.138E-02    0.629E-02
RMM:   7    -0.107667772281E+04   -0.34261E-04   -0.30933E-05  1685   0.114E-02    0.117E-01
RMM:   8    -0.107667769194E+04    0.30876E-04   -0.21097E-05  1511   0.100E-02    0.481E-02
RMM:   9    -0.107667771090E+04   -0.18962E-04   -0.17966E-05  1455   0.922E-03    0.743E-02
RMM:  10    -0.107667770675E+04    0.41474E-05   -0.14722E-05  1385   0.843E-03    0.597E-02
RMM:  11    -0.107667770222E+04    0.45318E-05   -0.82482E-06  1331   0.701E-03    0.229E-02
RMM:  12    -0.107667770698E+04   -0.47624E-05   -0.26671E-06  1248   0.425E-03    0.172E-02
RMM:  13    -0.107667770830E+04   -0.13130E-05   -0.15918E-06  1188   0.315E-03    0.145E-02
RMM:  14    -0.107667770999E+04   -0.16930E-05   -0.69005E-07  1089   0.230E-03    0.112E-02
RMM:  15    -0.107667771042E+04   -0.43536E-06   -0.40466E-07  1071   0.157E-03
  13 F= -.10835560E+04 E0= -.10835441E+04  d E =-.182586E-01  mag=    36.0531
 curvature:  -0.86 expect dE=-0.333E-01 dE for cont linesearch -0.224E-07
 trial: gam= 0.65186 g(F)=  0.380E-01 g(S)=  0.857E-03 ort =-0.658E-04 (trialstep = 0.578E+00)
 search vector abs. value=  0.109E+00
 bond charge predicted
       N       E                     dE             d eps       ncg     rms          rms(c)
DAV:   1    -0.107665986250E+04    0.17847E-01   -0.10712E+01  1848   0.641E+00    0.117E+00
RMM:   2    -0.107669405509E+04   -0.34193E-01   -0.20829E-01  2177   0.101E+00    0.264E+00
RMM:   3    -0.107670192311E+04   -0.78680E-02   -0.54239E-02  2214   0.495E-01    0.327E+00
RMM:   4    -0.107670013568E+04    0.17874E-02   -0.25546E-02  2239   0.312E-01    0.243E+00
RMM:   5    -0.107668514656E+04    0.14989E-01   -0.11443E-02  2095   0.223E-01    0.977E-01
RMM:   6    -0.107668487012E+04    0.27644E-03   -0.31389E-03  2191   0.107E-01    0.619E-01
RMM:   7    -0.107668606412E+04   -0.11940E-02   -0.22751E-03  2111   0.985E-02    0.802E-01
RMM:   8    -0.107668499940E+04    0.10647E-02   -0.14686E-03  2088   0.837E-02    0.491E-01
RMM:   9    -0.107668630537E+04   -0.13060E-02   -0.14679E-03  2079   0.767E-02    0.829E-01
RMM:  10    -0.107668521040E+04    0.10950E-02   -0.11447E-03  2118   0.696E-02    0.481E-01
RMM:  11    -0.107668518707E+04    0.23337E-04   -0.69380E-04  2037   0.584E-02    0.332E-01
RMM:  12    -0.107668545437E+04   -0.26730E-03   -0.49731E-04  2077   0.488E-02    0.402E-01
RMM:  13    -0.107668528909E+04    0.16528E-03   -0.33914E-04  1958   0.407E-02    0.263E-01
RMM:  14    -0.107668538916E+04   -0.10007E-03   -0.17733E-04  1930   0.300E-02    0.276E-01
RMM:  15    -0.107668528927E+04    0.99896E-04   -0.71544E-05  1757   0.193E-02    0.134E-01
RMM:  16    -0.107668537686E+04   -0.87595E-04   -0.35145E-05  1653   0.125E-02    0.646E-02
RMM:  17    -0.107668543385E+04   -0.56988E-04   -0.25340E-05  1551   0.114E-02    0.657E-02
RMM:  18    -0.107668547168E+04   -0.37834E-04   -0.11993E-05  1422   0.840E-03    0.260E-02
RMM:  19    -0.107668552234E+04   -0.50662E-04   -0.63924E-06  1347   0.591E-03    0.316E-02
RMM:  20    -0.107668555025E+04   -0.27908E-04   -0.36617E-06  1273   0.457E-03    0.204E-02
RMM:  21    -0.107668557105E+04   -0.20800E-04   -0.16439E-06  1191   0.313E-03    0.123E-02
RMM:  22    -0.107668559259E+04   -0.21533E-04   -0.81186E-07  1090   0.206E-03    0.966E-03
RMM:  23    -0.107668561550E+04   -0.22919E-04   -0.10585E-06  1136   0.223E-03    0.123E-02
RMM:  24    -0.107668565786E+04   -0.42356E-04   -0.12674E-06  1153   0.226E-03    0.621E-03
RMM:  25    -0.107668569293E+04   -0.35069E-04   -0.99974E-07  1099   0.166E-03    0.631E-03
RMM:  26    -0.107668570430E+04   -0.11366E-04   -0.60789E-07  1004   0.157E-03    0.616E-03
RMM:  27    -0.107668571591E+04   -0.11617E-04   -0.47809E-07   983   0.125E-03    0.430E-03
RMM:  28    -0.107668574015E+04   -0.24238E-04   -0.66132E-07  1058   0.121E-03    0.319E-03
RMM:  29    -0.107668575612E+04   -0.15969E-04   -0.62918E-07   999   0.134E-03    0.477E-03
RMM:  30    -0.107668576638E+04   -0.10263E-04   -0.54006E-07   963   0.121E-03    0.247E-03
RMM:  31    -0.107668577694E+04   -0.10557E-04   -0.50551E-07   966   0.100E-03    0.156E-03
RMM:  32    -0.107668578652E+04   -0.95764E-05   -0.52447E-07   987   0.963E-04    0.126E-03
RMM:  33    -0.107668579312E+04   -0.66058E-05   -0.51627E-07   973   0.934E-04    0.110E-03
RMM:  34    -0.107668579615E+04   -0.30274E-05   -0.40977E-07   911   0.859E-04    0.749E-04
RMM:  35    -0.107668579762E+04   -0.14705E-05   -0.30008E-07   857   0.745E-04    0.468E-04
RMM:  36    -0.107668579871E+04   -0.10856E-05   -0.24018E-07   823   0.668E-04    0.342E-04
RMM:  37    -0.107668579922E+04   -0.51859E-06   -0.17993E-07   801   0.606E-04
  14 F= -.10835664E+04 E0= -.10835542E+04  d E =-.103493E-01  mag=    36.0628
 trial-energy change:   -0.010349  1 .order   -0.010401   -0.022450    0.001648
 step:   0.5381(harm=  0.5386)  dis= 0.01214  next Energy= -1083.566418 (dE=-0.104E-01)
 bond charge predicted
       N       E                     dE             d eps       ncg     rms          rms(c)
DAV:   1    -0.107668589506E+04   -0.96355E-04   -0.51384E-02  1956   0.443E-01    0.810E-02
RMM:   2    -0.107668603152E+04   -0.13646E-03   -0.96197E-04  2199   0.681E-02    0.184E-01
RMM:   3    -0.107668606779E+04   -0.36269E-04   -0.25191E-04  2147   0.350E-02    0.218E-01
RMM:   4    -0.107668604387E+04    0.23913E-04   -0.10842E-04  1964   0.227E-02    0.176E-01
RMM:   5    -0.107668597485E+04    0.69028E-04   -0.41520E-05  1611   0.146E-02    0.483E-02
RMM:   6    -0.107668600999E+04   -0.35142E-04   -0.15473E-05  1438   0.887E-03    0.549E-02
RMM:   7    -0.107668601324E+04   -0.32527E-05   -0.11548E-05  1430   0.764E-03    0.664E-02
RMM:   8    -0.107668600587E+04    0.73686E-05   -0.85521E-06  1346   0.709E-03    0.333E-02
RMM:   9    -0.107668601345E+04   -0.75740E-05   -0.73151E-06  1317   0.613E-03    0.532E-02
RMM:  10    -0.107668601008E+04    0.33693E-05   -0.63281E-06  1314   0.603E-03    0.374E-02
RMM:  11    -0.107668600937E+04    0.70853E-06   -0.35256E-06  1271   0.489E-03
  15 F= -.10835664E+04 E0= -.10835542E+04  d E =-.104027E-01  mag=    36.0625
 curvature:  -0.76 expect dE=-0.184E-01 dE for cont linesearch -0.882E-07
 trial: gam= 0.62934 g(F)=  0.238E-01 g(S)=  0.498E-03 ort =-0.113E-03 (trialstep = 0.570E+00)
 search vector abs. value=  0.674E-01
 bond charge predicted
       N       E                     dE             d eps       ncg     rms          rms(c)
DAV:   1    -0.107667796381E+04    0.80463E-02   -0.62398E+00  1848   0.500E+00    0.800E-01
RMM:   2    -0.107669212078E+04   -0.14157E-01   -0.11381E-01  2266   0.718E-01    0.137E+00
RMM:   3    -0.107670421510E+04   -0.12094E-01   -0.25969E-02  2252   0.325E-01    0.215E+00
RMM:   4    -0.107669775105E+04    0.64640E-02   -0.11727E-02  2235   0.217E-01    0.187E+00
RMM:   5    -0.107669134637E+04    0.64047E-02   -0.38807E-03  2137   0.132E-01    0.437E-01
RMM:   6    -0.107669289050E+04   -0.15441E-02   -0.17679E-03  2169   0.820E-02    0.774E-01
RMM:   7    -0.107669215422E+04    0.73628E-03   -0.10833E-03  2154   0.706E-02    0.433E-01
RMM:   8    -0.107669241134E+04   -0.25712E-03   -0.69676E-04  2035   0.517E-02    0.498E-01
RMM:   9    -0.107669240689E+04    0.44457E-05   -0.64492E-04  2098   0.510E-02    0.451E-01
RMM:  10    -0.107669216628E+04    0.24061E-03   -0.53375E-04  2015   0.470E-02    0.292E-01
RMM:  11    -0.107669229934E+04   -0.13305E-03   -0.39547E-04  2050   0.399E-02    0.290E-01
RMM:  12    -0.107669219801E+04    0.10132E-03   -0.19034E-04  1957   0.313E-02    0.165E-01
RMM:  13    -0.107669235927E+04   -0.16125E-03   -0.12426E-04  1834   0.227E-02    0.288E-01
RMM:  14    -0.107669224216E+04    0.11710E-03   -0.59151E-05  1730   0.178E-02    0.121E-01
RMM:  15    -0.107669228977E+04   -0.47608E-04   -0.25007E-05  1558   0.115E-02    0.799E-02
RMM:  16    -0.107669232424E+04   -0.34475E-04   -0.15359E-05  1433   0.886E-03    0.431E-02
RMM:  17    -0.107669237925E+04   -0.55006E-04   -0.77242E-06  1378   0.671E-03    0.247E-02
RMM:  18    -0.107669240687E+04   -0.27621E-04   -0.45063E-06  1301   0.525E-03    0.219E-02
RMM:  19    -0.107669244168E+04   -0.34810E-04   -0.28311E-06  1254   0.411E-03    0.152E-02
RMM:  20    -0.107669248194E+04   -0.40254E-04   -0.15213E-06  1161   0.286E-03    0.138E-02
RMM:  21    -0.107669249840E+04   -0.16463E-04   -0.10473E-06  1124   0.243E-03    0.123E-02
RMM:  22    -0.107669251612E+04   -0.17719E-04   -0.71472E-07  1061   0.194E-03    0.638E-03
RMM:  23    -0.107669253011E+04   -0.13990E-04   -0.48705E-07  1035   0.144E-03    0.720E-03
RMM:  24    -0.107669254519E+04   -0.15086E-04   -0.47500E-07   992   0.148E-03    0.480E-03
RMM:  25    -0.107669258117E+04   -0.35981E-04   -0.73811E-07  1076   0.120E-03    0.511E-03
RMM:  26    -0.107669260505E+04   -0.23878E-04   -0.57840E-07  1015   0.128E-03    0.383E-03
RMM:  27    -0.107669261591E+04   -0.10854E-04   -0.44882E-07   961   0.108E-03    0.336E-03
RMM:  28    -0.107669262567E+04   -0.97621E-05   -0.37320E-07   937   0.987E-04    0.207E-03
RMM:  29    -0.107669264240E+04   -0.16732E-04   -0.51458E-07   987   0.908E-04    0.164E-03
RMM:  30    -0.107669265107E+04   -0.86744E-05   -0.39848E-07   925   0.982E-04    0.222E-03
RMM:  31    -0.107669265786E+04   -0.67848E-05   -0.37004E-07   887   0.818E-04    0.183E-03
RMM:  32    -0.107669266753E+04   -0.96712E-05   -0.45437E-07   990   0.892E-04    0.131E-03
RMM:  33    -0.107669267326E+04   -0.57305E-05   -0.43515E-07   952   0.849E-04    0.570E-04
RMM:  34    -0.107669267619E+04   -0.29311E-05   -0.36564E-07   897   0.810E-04    0.572E-04
RMM:  35    -0.107669267781E+04   -0.16169E-05   -0.30229E-07   854   0.725E-04    0.347E-04
RMM:  36    -0.107669267857E+04   -0.75896E-06   -0.23262E-07   856   0.679E-04
  16 F= -.10835749E+04 E0= -.10835623E+04  d E =-.846465E-02  mag=    36.0777
 trial-energy change:   -0.008465  1 .order   -0.008475   -0.013816   -0.003134
 step:   0.7374(harm=  0.7374)  dis= 0.01258  next Energy= -1083.575349 (dE=-0.893E-02)
 bond charge predicted
       N       E                     dE             d eps       ncg     rms          rms(c)
DAV:   1    -0.107669136559E+04    0.13122E-02   -0.53726E-01  1956   0.147E+00    0.235E-01
RMM:   2    -0.107669261853E+04   -0.12529E-02   -0.96411E-03  2274   0.210E-01    0.484E-01
RMM:   3    -0.107669357144E+04   -0.95291E-03   -0.21424E-03  2241   0.955E-02    0.785E-01
RMM:   4    -0.107669270229E+04    0.86915E-03   -0.10448E-03  2206   0.686E-02    0.502E-01
RMM:   5    -0.107669237365E+04    0.32864E-03   -0.35296E-04  2003   0.413E-02    0.887E-02
RMM:   6    -0.107669259372E+04   -0.22007E-03   -0.13475E-04  2032   0.235E-02    0.210E-01
RMM:   7    -0.107669251169E+04    0.82035E-04   -0.90089E-05  1979   0.207E-02    0.115E-01
RMM:   8    -0.107669252961E+04   -0.17919E-04   -0.55438E-05  1775   0.160E-02    0.129E-01
RMM:   9    -0.107669255946E+04   -0.29857E-04   -0.65919E-05  1828   0.178E-02    0.149E-01
RMM:  10    -0.107669252363E+04    0.35829E-04   -0.46116E-05  1662   0.150E-02    0.105E-01
RMM:  11    -0.107669252033E+04    0.33064E-05   -0.25591E-05  1516   0.115E-02    0.760E-02
RMM:  12    -0.107669252262E+04   -0.22882E-05   -0.91831E-06  1357   0.769E-03    0.289E-02
RMM:  13    -0.107669254316E+04   -0.20544E-04   -0.35930E-06  1284   0.452E-03    0.277E-02
RMM:  14    -0.107669254858E+04   -0.54230E-05   -0.17995E-06  1221   0.354E-03    0.225E-02
RMM:  15    -0.107669255322E+04   -0.46421E-05   -0.76140E-07  1096   0.235E-03    0.168E-02
RMM:  16    -0.107669255589E+04   -0.26690E-05   -0.43819E-07  1073   0.160E-03    0.131E-02
RMM:  17    -0.107669256158E+04   -0.56904E-05   -0.34480E-07  1039   0.142E-03    0.808E-03
RMM:  18    -0.107669256490E+04   -0.33123E-05   -0.26372E-07   984   0.129E-03    0.582E-03
RMM:  19    -0.107669257047E+04   -0.55724E-05   -0.22159E-07   975   0.111E-03    0.415E-03
RMM:  20    -0.107669257582E+04   -0.53489E-05   -0.19117E-07   970   0.980E-04    0.513E-03
RMM:  21    -0.107669257918E+04   -0.33639E-05   -0.14672E-07   903   0.865E-04    0.354E-03
RMM:  22    -0.107669258263E+04   -0.34490E-05   -0.95074E-08   785   0.617E-04    0.199E-03
RMM:  23    -0.107669258454E+04   -0.19073E-05   -0.67155E-08   736   0.543E-04    0.186E-03
RMM:  24    -0.107669258731E+04   -0.27742E-05   -0.69087E-08   768   0.523E-04    0.163E-03
RMM:  25    -0.107669259187E+04   -0.45554E-05   -0.96368E-08   841   0.508E-04    0.145E-03
RMM:  26    -0.107669259488E+04   -0.30103E-05   -0.89841E-08   834   0.522E-04    0.138E-03
RMM:  27    -0.107669259650E+04   -0.16179E-05   -0.70764E-08   716   0.477E-04    0.110E-03
RMM:  28    -0.107669259888E+04   -0.23829E-05   -0.82661E-08   749   0.449E-04    0.744E-04
RMM:  29    -0.107669260059E+04   -0.17081E-05   -0.79222E-08   781   0.467E-04    0.778E-04
RMM:  30    -0.107669260157E+04   -0.98091E-06   -0.63465E-08   697   0.432E-04
  17 F= -.10835753E+04 E0= -.10835627E+04  d E =-.891523E-02  mag=    36.0823
 curvature:  -1.03 expect dE=-0.260E-01 dE for cont linesearch -0.236E-09
 trial: gam= 1.04557 g(F)=  0.250E-01 g(S)=  0.334E-03 ort =-0.394E-05 (trialstep = 0.411E+00)
 search vector abs. value=  0.990E-01
 bond charge predicted
       N       E                     dE             d eps       ncg     rms          rms(c)
DAV:   1    -0.107668699400E+04    0.56066E-02   -0.46361E+00  1848   0.427E+00    0.707E-01
RMM:   2    -0.107669874865E+04   -0.11755E-01   -0.82765E-02  2241   0.621E-01    0.142E+00
RMM:   3    -0.107670965564E+04   -0.10907E-01   -0.19917E-02  2213   0.296E-01    0.245E+00
RMM:   4    -0.107669726473E+04    0.12391E-01   -0.80894E-03  2248   0.189E-01    0.740E-01
RMM:   5    -0.107669729989E+04   -0.35164E-04   -0.20126E-03  2156   0.970E-02    0.409E-01
RMM:   6    -0.107669799521E+04   -0.69532E-03   -0.10865E-03  2117   0.711E-02    0.534E-01
RMM:   7    -0.107669747436E+04    0.52086E-03   -0.66032E-04  2164   0.567E-02    0.321E-01
RMM:   8    -0.107669756514E+04   -0.90781E-04   -0.50704E-04  2036   0.481E-02    0.363E-01
RMM:   9    -0.107669779222E+04   -0.22709E-03   -0.59249E-04  2084   0.517E-02    0.494E-01
RMM:  10    -0.107669730422E+04    0.48800E-03   -0.38331E-04  2006   0.448E-02    0.198E-01
RMM:  11    -0.107669742111E+04   -0.11689E-03   -0.19533E-04  1955   0.329E-02    0.157E-01
RMM:  12    -0.107669743028E+04   -0.91719E-05   -0.86076E-05  1799   0.211E-02    0.105E-01
RMM:  13    -0.107669749283E+04   -0.62545E-04   -0.50959E-05  1689   0.157E-02    0.120E-01
RMM:  14    -0.107669750781E+04   -0.14986E-04   -0.24156E-05  1472   0.117E-02    0.864E-02
RMM:  15    -0.107669751842E+04   -0.10604E-04   -0.73707E-06  1337   0.615E-03    0.651E-02
RMM:  16    -0.107669755578E+04   -0.37360E-04   -0.49434E-06  1290   0.529E-03    0.269E-02
RMM:  17    -0.107669758505E+04   -0.29266E-04   -0.28866E-06  1262   0.397E-03    0.207E-02
RMM:  18    -0.107669761198E+04   -0.26940E-04   -0.18996E-06  1216   0.344E-03    0.125E-02
RMM:  19    -0.107669764815E+04   -0.36161E-04   -0.15088E-06  1174   0.275E-03    0.150E-02
RMM:  20    -0.107669767571E+04   -0.27561E-04   -0.14349E-06  1149   0.269E-03    0.118E-02
RMM:  21    -0.107669771251E+04   -0.36807E-04   -0.10046E-06  1106   0.204E-03    0.788E-03
RMM:  22    -0.107669772596E+04   -0.13448E-04   -0.55662E-07  1042   0.158E-03    0.747E-03
RMM:  23    -0.107669773605E+04   -0.10085E-04   -0.40633E-07   982   0.132E-03    0.576E-03
RMM:  24    -0.107669776741E+04   -0.31360E-04   -0.56745E-07  1053   0.113E-03    0.383E-03
RMM:  25    -0.107669779305E+04   -0.25646E-04   -0.60204E-07  1021   0.135E-03    0.509E-03
RMM:  26    -0.107669780808E+04   -0.15025E-04   -0.54100E-07   983   0.130E-03    0.314E-03
RMM:  27    -0.107669782275E+04   -0.14673E-04   -0.48627E-07   956   0.101E-03    0.232E-03
RMM:  28    -0.107669783421E+04   -0.11455E-04   -0.41348E-07   925   0.939E-04    0.230E-03
RMM:  29    -0.107669784228E+04   -0.80765E-05   -0.36440E-07   901   0.898E-04    0.191E-03
RMM:  30    -0.107669785422E+04   -0.11933E-04   -0.45174E-07   959   0.868E-04    0.100E-03
RMM:  31    -0.107669786284E+04   -0.86243E-05   -0.43517E-07   958   0.883E-04    0.833E-04
RMM:  32    -0.107669786752E+04   -0.46773E-05   -0.36906E-07   906   0.797E-04    0.669E-04
RMM:  33    -0.107669787108E+04   -0.35594E-05   -0.33219E-07   891   0.760E-04    0.607E-04
RMM:  34    -0.107669787298E+04   -0.19063E-05   -0.26577E-07   857   0.703E-04    0.292E-04
RMM:  35    -0.107669787410E+04   -0.11193E-05   -0.21193E-07   835   0.634E-04    0.347E-04
RMM:  36    -0.107669787463E+04   -0.52378E-06   -0.15510E-07   770   0.571E-04
  18 F= -.10835824E+04 E0= -.10835695E+04  d E =-.704778E-02  mag=    36.0930
 trial-energy change:   -0.007048  1 .order   -0.007061   -0.010405   -0.003717
 step:   0.6394(harm=  0.6394)  dis= 0.01174  next Energy= -1083.583424 (dE=-0.809E-02)
 bond charge predicted
       N       E                     dE             d eps       ncg     rms          rms(c)
DAV:   1    -0.107669458950E+04    0.32846E-02   -0.14322E+00  1944   0.237E+00    0.394E-01
RMM:   2    -0.107669833271E+04   -0.37432E-02   -0.25328E-02  2244   0.345E-01    0.881E-01
RMM:   3    -0.107670105049E+04   -0.27178E-02   -0.58818E-03  2222   0.161E-01    0.138E+00
RMM:   4    -0.107669759856E+04    0.34519E-02   -0.24652E-03  2226   0.109E-01    0.423E-01
RMM:   5    -0.107669768548E+04   -0.86915E-04   -0.65840E-04  2105   0.580E-02    0.237E-01
RMM:   6    -0.107669791520E+04   -0.22972E-03   -0.33806E-04  2101   0.380E-02    0.297E-01
RMM:   7    -0.107669777746E+04    0.13774E-03   -0.21285E-04  2125   0.312E-02    0.210E-01
RMM:   8    -0.107669773778E+04    0.39678E-04   -0.15479E-04  1960   0.272E-02    0.158E-01
RMM:   9    -0.107669783366E+04   -0.95880E-04   -0.18014E-04  1999   0.286E-02    0.235E-01
RMM:  10    -0.107669771734E+04    0.11632E-03   -0.11806E-04  1843   0.238E-02    0.122E-01
RMM:  11    -0.107669773003E+04   -0.12688E-04   -0.53307E-05  1719   0.171E-02    0.934E-02
RMM:  12    -0.107669773278E+04   -0.27508E-05   -0.23807E-05  1489   0.113E-02    0.490E-02
RMM:  13    -0.107669775379E+04   -0.21015E-04   -0.12853E-05  1379   0.837E-03    0.490E-02
RMM:  14    -0.107669776760E+04   -0.13811E-04   -0.57234E-06  1324   0.621E-03    0.281E-02
RMM:  15    -0.107669778139E+04   -0.13783E-04   -0.26523E-06  1225   0.365E-03    0.380E-02
RMM:  16    -0.107669779058E+04   -0.91960E-05   -0.13008E-06  1145   0.299E-03    0.139E-02
RMM:  17    -0.107669779968E+04   -0.90947E-05   -0.64916E-07  1089   0.202E-03    0.114E-02
RMM:  18    -0.107669781071E+04   -0.11033E-04   -0.47062E-07  1064   0.166E-03    0.642E-03
RMM:  19    -0.107669782565E+04   -0.14935E-04   -0.45465E-07  1049   0.146E-03    0.748E-03
RMM:  20    -0.107669783649E+04   -0.10842E-04   -0.46713E-07  1016   0.159E-03    0.583E-03
RMM:  21    -0.107669784993E+04   -0.13441E-04   -0.35533E-07  1021   0.118E-03    0.367E-03
RMM:  22    -0.107669785746E+04   -0.75325E-05   -0.24013E-07   965   0.939E-04    0.362E-03
RMM:  23    -0.107669786234E+04   -0.48813E-05   -0.18279E-07   862   0.846E-04    0.237E-03
RMM:  24    -0.107669787443E+04   -0.12086E-04   -0.23400E-07   933   0.718E-04    0.164E-03
RMM:  25    -0.107669788527E+04   -0.10838E-04   -0.25661E-07   949   0.800E-04    0.230E-03
RMM:  26    -0.107669788906E+04   -0.37884E-05   -0.19505E-07   862   0.759E-04    0.177E-03
RMM:  27    -0.107669789390E+04   -0.48402E-05   -0.17742E-07   828   0.611E-04    0.118E-03
RMM:  28    -0.107669789851E+04   -0.46156E-05   -0.16841E-07   852   0.620E-04    0.136E-03
RMM:  29    -0.107669790134E+04   -0.28297E-05   -0.14439E-07   815   0.585E-04    0.869E-04
RMM:  30    -0.107669790593E+04   -0.45917E-05   -0.18319E-07   862   0.571E-04    0.550E-04
RMM:  31    -0.107669790844E+04   -0.25089E-05   -0.15831E-07   865   0.594E-04    0.389E-04
RMM:  32    -0.107669790998E+04   -0.15362E-05   -0.14301E-07   813   0.518E-04    0.262E-04
RMM:  33    -0.107669791102E+04   -0.10389E-05   -0.12113E-07   817   0.522E-04    0.200E-04
RMM:  34    -0.107669791151E+04   -0.48790E-06   -0.93814E-08   727   0.454E-04
  19 F= -.10835834E+04 E0= -.10835704E+04  d E =-.806848E-02  mag=    36.0989
 curvature:  -1.25 expect dE=-0.294E-01 dE for cont linesearch -0.169E-07
 trial: gam= 0.93091 g(F)=  0.231E-01 g(S)=  0.399E-03 ort =-0.365E-04 (trialstep = 0.414E+00)
 search vector abs. value=  0.109E+00
 bond charge predicted
       N       E                     dE             d eps       ncg     rms          rms(c)
DAV:   1    -0.107669168938E+04    0.62216E-02   -0.52228E+00  1860   0.442E+00    0.746E-01
RMM:   2    -0.107670640442E+04   -0.14715E-01   -0.89715E-02  2218   0.647E-01    0.172E+00
RMM:   3    -0.107671301112E+04   -0.66067E-02   -0.21957E-02  2206   0.317E-01    0.230E+00
RMM:   4    -0.107670718109E+04    0.58300E-02   -0.97909E-03  2240   0.200E-01    0.168E+00
RMM:   5    -0.107670229853E+04    0.48826E-02   -0.34028E-03  2102   0.128E-01    0.498E-01
RMM:   6    -0.107670328843E+04   -0.98990E-03   -0.14962E-03  2075   0.852E-02    0.378E-01
RMM:   7    -0.107670361913E+04   -0.33070E-03   -0.81609E-04  2170   0.581E-02    0.543E-01
RMM:   8    -0.107670301429E+04    0.60484E-03   -0.53141E-04  2096   0.518E-02    0.217E-01
RMM:   9    -0.107670357050E+04   -0.55621E-03   -0.58861E-04  2038   0.530E-02    0.537E-01
RMM:  10    -0.107670320166E+04    0.36884E-03   -0.45355E-04  2053   0.462E-02    0.375E-01
RMM:  11    -0.107670303365E+04    0.16800E-03   -0.25934E-04  1938   0.360E-02    0.147E-01
RMM:  12    -0.107670312149E+04   -0.87835E-04   -0.12112E-04  1902   0.240E-02    0.138E-01
RMM:  13    -0.107670314408E+04   -0.22591E-04   -0.61774E-05  1725   0.175E-02    0.868E-02
RMM:  14    -0.107670319801E+04   -0.53930E-04   -0.37010E-05  1552   0.122E-02    0.114E-01
RMM:  15    -0.107670320395E+04   -0.59373E-05   -0.18419E-05  1403   0.954E-03    0.619E-02
RMM:  16    -0.107670324266E+04   -0.38712E-04   -0.78597E-06  1348   0.648E-03    0.539E-02
RMM:  17    -0.107670326342E+04   -0.20762E-04   -0.39128E-06  1284   0.483E-03    0.312E-02
RMM:  18    -0.107670330000E+04   -0.36576E-04   -0.21571E-06  1241   0.332E-03    0.187E-02
RMM:  19    -0.107670332606E+04   -0.26058E-04   -0.18130E-06  1208   0.320E-03    0.148E-02
RMM:  20    -0.107670337106E+04   -0.45003E-04   -0.15263E-06  1177   0.273E-03    0.841E-03
RMM:  21    -0.107670340549E+04   -0.34429E-04   -0.10243E-06  1113   0.216E-03    0.699E-03
RMM:  22    -0.107670342252E+04   -0.17034E-04   -0.74939E-07  1061   0.180E-03    0.810E-03
RMM:  23    -0.107670344130E+04   -0.18773E-04   -0.61341E-07  1024   0.161E-03    0.494E-03
RMM:  24    -0.107670348027E+04   -0.38979E-04   -0.92422E-07  1078   0.137E-03    0.494E-03
RMM:  25    -0.107670349848E+04   -0.18209E-04   -0.69728E-07  1001   0.161E-03    0.584E-03
RMM:  26    -0.107670351445E+04   -0.15969E-04   -0.60659E-07   999   0.125E-03    0.340E-03
RMM:  27    -0.107670352699E+04   -0.12533E-04   -0.46651E-07   961   0.109E-03    0.241E-03
RMM:  28    -0.107670353620E+04   -0.92137E-05   -0.40455E-07   917   0.950E-04    0.307E-03
RMM:  29    -0.107670354729E+04   -0.11086E-04   -0.40008E-07   927   0.978E-04    0.173E-03
RMM:  30    -0.107670356179E+04   -0.14508E-04   -0.54261E-07   984   0.920E-04    0.106E-03
RMM:  31    -0.107670356994E+04   -0.81510E-05   -0.46328E-07   956   0.954E-04    0.101E-03
RMM:  32    -0.107670357526E+04   -0.53156E-05   -0.43059E-07   920   0.796E-04    0.858E-04
RMM:  33    -0.107670357946E+04   -0.41967E-05   -0.37150E-07   923   0.838E-04    0.466E-04
RMM:  34    -0.107670358149E+04   -0.20303E-05   -0.30462E-07   853   0.713E-04    0.318E-04
RMM:  35    -0.107670358267E+04   -0.11865E-05   -0.23199E-07   833   0.678E-04    0.288E-04
RMM:  36    -0.107670358329E+04   -0.61691E-06   -0.17407E-07   782   0.572E-04
  20 F= -.10835905E+04 E0= -.10835772E+04  d E =-.708989E-02  mag=    36.1082
 trial-energy change:   -0.007090  1 .order   -0.007110   -0.009709   -0.004511
 step:   0.7898(harm=  0.7732)  dis= 0.01823  next Energy= -1083.592520 (dE=-0.912E-02)
 bond charge predicted
       N       E                     dE             d eps       ncg     rms          rms(c)
DAV:   1    -0.107669446769E+04    0.91150E-02   -0.43030E+00  1890   0.401E+00    0.677E-01
RMM:   2    -0.107670657350E+04   -0.12106E-01   -0.73521E-02  2220   0.586E-01    0.157E+00
RMM:   3    -0.107671190385E+04   -0.53303E-02   -0.17930E-02  2210   0.287E-01    0.209E+00
RMM:   4    -0.107670722762E+04    0.46762E-02   -0.80839E-03  2234   0.184E-01    0.155E+00
RMM:   5    -0.107670311157E+04    0.41160E-02   -0.28704E-03  2099   0.118E-01    0.458E-01
RMM:   6    -0.107670395552E+04   -0.84395E-03   -0.12587E-03  2071   0.784E-02    0.322E-01
RMM:   7    -0.107670421674E+04   -0.26122E-03   -0.64369E-04  2169   0.522E-02    0.471E-01
RMM:   8    -0.107670378321E+04    0.43353E-03   -0.42341E-04  2098   0.451E-02    0.207E-01
RMM:   9    -0.107670416634E+04   -0.38313E-03   -0.48722E-04  2036   0.482E-02    0.436E-01
RMM:  10    -0.107670378315E+04    0.38320E-03   -0.29231E-04  2008   0.400E-02    0.218E-01
RMM:  11    -0.107670383945E+04   -0.56308E-04   -0.16200E-04  1883   0.278E-02    0.190E-01
RMM:  12    -0.107670385123E+04   -0.11778E-04   -0.99508E-05  1858   0.210E-02    0.132E-01
RMM:  13    -0.107670386659E+04   -0.15362E-04   -0.49913E-05  1677   0.159E-02    0.727E-02
RMM:  14    -0.107670391642E+04   -0.49823E-04   -0.25190E-05  1481   0.106E-02    0.100E-01
RMM:  15    -0.107670391728E+04   -0.85874E-06   -0.13017E-05  1353   0.780E-03    0.603E-02
RMM:  16    -0.107670395036E+04   -0.33086E-04   -0.58287E-06  1316   0.564E-03    0.474E-02
RMM:  17    -0.107670396751E+04   -0.17151E-04   -0.30650E-06  1272   0.429E-03    0.279E-02
[...]
RMM:  12    -0.107830866139E+04   -0.32656E-04   -0.32451E-04  2087   0.402E-02    0.295E-01
RMM:  13    -0.107830858895E+04    0.72442E-04   -0.17562E-04  1941   0.300E-02    0.168E-01
RMM:  14    -0.107830858466E+04    0.42876E-05   -0.70061E-05  1773   0.195E-02    0.841E-02
RMM:  15    -0.107830860133E+04   -0.16673E-04   -0.36764E-05  1619   0.142E-02    0.787E-02
RMM:  16    -0.107830859988E+04    0.14515E-05   -0.18814E-05  1436   0.105E-02    0.391E-02
RMM:  17    -0.107830860805E+04   -0.81660E-05   -0.94258E-06  1357   0.728E-03    0.468E-02
RMM:  18    -0.107830860962E+04   -0.15709E-05   -0.52967E-06  1316   0.586E-03    0.286E-02
RMM:  19    -0.107830862043E+04   -0.10809E-04   -0.25845E-06  1258   0.382E-03    0.234E-02
RMM:  20    -0.107830862521E+04   -0.47840E-05   -0.20670E-06  1221   0.369E-03    0.205E-02
RMM:  21    -0.107830862947E+04   -0.42537E-05   -0.11371E-06  1137   0.269E-03    0.123E-02
RMM:  22    -0.107830863380E+04   -0.43340E-05   -0.55950E-07  1071   0.190E-03    0.926E-03
RMM:  23    -0.107830863721E+04   -0.34088E-05   -0.52771E-07  1042   0.178E-03    0.869E-03
RMM:  24    -0.107830864355E+04   -0.63364E-05   -0.45254E-07  1058   0.160E-03    0.733E-03
RMM:  25    -0.107830865044E+04   -0.68921E-05   -0.43927E-07  1058   0.140E-03    0.628E-03
RMM:  26    -0.107830865329E+04   -0.28484E-05   -0.35971E-07   983   0.136E-03    0.556E-03
RMM:  27    -0.107830865751E+04   -0.42225E-05   -0.29968E-07   981   0.110E-03    0.374E-03
RMM:  28    -0.107830866142E+04   -0.39118E-05   -0.24496E-07   970   0.922E-04    0.341E-03
RMM:  29    -0.107830866436E+04   -0.29365E-05   -0.21920E-07   921   0.828E-04    0.341E-03
RMM:  30    -0.107830866581E+04   -0.14488E-05   -0.16881E-07   853   0.804E-04    0.334E-03
RMM:  31    -0.107830866831E+04   -0.25056E-05   -0.18325E-07   913   0.687E-04    0.154E-03
RMM:  32    -0.107830867038E+04   -0.20642E-05   -0.16323E-07   910   0.661E-04    0.115E-03
RMM:  33    -0.107830867139E+04   -0.10104E-05   -0.12583E-07   818   0.549E-04    0.754E-04
RMM:  34    -0.107830867219E+04   -0.80043E-06   -0.98026E-08   755   0.501E-04
 169 F= -.10858950E+04 E0= -.10858808E+04  d E =-.169625E-01  mag=    38.1696
 trial-energy change:   -0.016963  1 .order   -0.016970   -0.022871   -0.011068
 step:   0.6822(harm=  0.6822)  dis= 0.02124  next Energy= -1085.900220 (dE=-0.222E-01)
 bond charge predicted
       N       E                     dE             d eps       ncg     rms          rms(c)
DAV:   1    -0.107828495387E+04    0.23718E-01   -0.10615E+01  1848   0.735E+00    0.979E-01
RMM:   2    -0.107832472427E+04   -0.39770E-01   -0.25379E-01  2045   0.116E+00    0.266E+00
RMM:   3    -0.107832228484E+04    0.24394E-02   -0.47054E-02  2072   0.550E-01    0.283E+00
RMM:   4    -0.107832286036E+04   -0.57552E-03   -0.21851E-02  2316   0.334E-01    0.244E+00
RMM:   5    -0.107831305879E+04    0.98016E-02   -0.83533E-03  2039   0.218E-01    0.105E+00
RMM:   6    -0.107831337106E+04   -0.31227E-03   -0.33863E-03  2144   0.126E-01    0.601E-01
RMM:   7    -0.107831454608E+04   -0.11750E-02   -0.18018E-03  2108   0.864E-02    0.933E-01
RMM:   8    -0.107831317698E+04    0.13691E-02   -0.10945E-03  2112   0.758E-02    0.395E-01
RMM:   9    -0.107831359381E+04   -0.41684E-03   -0.10514E-03  2065   0.707E-02    0.461E-01
RMM:  10    -0.107831375498E+04   -0.16116E-03   -0.90818E-04  2088   0.644E-02    0.519E-01
RMM:  11    -0.107831332577E+04    0.42921E-03   -0.54717E-04  1985   0.518E-02    0.323E-01
RMM:  12    -0.107831337997E+04   -0.54200E-04   -0.27833E-04  2087   0.371E-02    0.274E-01
RMM:  13    -0.107831331117E+04    0.68798E-04   -0.15002E-04  1912   0.276E-02    0.147E-01
RMM:  14    -0.107831331372E+04   -0.25536E-05   -0.58758E-05  1749   0.180E-02    0.748E-02
RMM:  15    -0.107831332805E+04   -0.14329E-04   -0.30159E-05  1571   0.129E-02    0.714E-02
RMM:  16    -0.107831332644E+04    0.16099E-05   -0.15051E-05  1403   0.953E-03    0.318E-02
RMM:  17    -0.107831333462E+04   -0.81746E-05   -0.76424E-06  1342   0.652E-03    0.422E-02
RMM:  18    -0.107831333630E+04   -0.16785E-05   -0.45267E-06  1294   0.539E-03    0.249E-02
RMM:  19    -0.107831334587E+04   -0.95746E-05   -0.22729E-06  1244   0.358E-03    0.204E-02
RMM:  20    -0.107831334945E+04   -0.35791E-05   -0.17384E-06  1204   0.343E-03    0.169E-02
RMM:  21    -0.107831335386E+04   -0.44091E-05   -0.89080E-07  1110   0.234E-03    0.106E-02
RMM:  22    -0.107831335759E+04   -0.37344E-05   -0.53629E-07  1055   0.186E-03    0.924E-03
RMM:  23    -0.107831336060E+04   -0.30106E-05   -0.47138E-07  1025   0.170E-03    0.707E-03
RMM:  24    -0.107831336714E+04   -0.65330E-05   -0.39356E-07  1054   0.141E-03    0.649E-03
RMM:  25    -0.107831337288E+04   -0.57469E-05   -0.40186E-07  1047   0.136E-03    0.605E-03
RMM:  26    -0.107831337525E+04   -0.23638E-05   -0.32025E-07   966   0.127E-03    0.456E-03
RMM:  27    -0.107831337928E+04   -0.40363E-05   -0.26577E-07   974   0.978E-04    0.361E-03
RMM:  28    -0.107831338257E+04   -0.32815E-05   -0.21681E-07   941   0.879E-04    0.336E-03
RMM:  29    -0.107831338471E+04   -0.21422E-05   -0.19299E-07   913   0.805E-04    0.376E-03
RMM:  30    -0.107831338611E+04   -0.13998E-05   -0.14895E-07   850   0.751E-04    0.282E-03
RMM:  31    -0.107831338847E+04   -0.23648E-05   -0.16897E-07   896   0.633E-04    0.108E-03
RMM:  32    -0.107831339013E+04   -0.16586E-05   -0.13955E-07   891   0.628E-04    0.102E-03
RMM:  33    -0.107831339103E+04   -0.90156E-06   -0.11054E-07   773   0.506E-04
 170 F= -.10859002E+04 E0= -.10858859E+04  d E =-.221700E-01  mag=    38.1765
 curvature:  -2.27 expect dE=-0.151E+00 dE for cont linesearch -0.100E-06
 trial: gam= 1.01608 g(F)=  0.653E-01 g(S)=  0.103E-02 ort = 0.138E-03 (trialstep = 0.352E+00)
 search vector abs. value=  0.513E+00
 bond charge predicted
       N       E                     dE             d eps       ncg     rms          rms(c)
DAV:   1    -0.107829271590E+04    0.20674E-01   -0.14373E+01  1848   0.859E+00    0.112E+00
RMM:   2    -0.107834464119E+04   -0.51925E-01   -0.34024E-01  2024   0.135E+00    0.286E+00
RMM:   3    -0.107834382567E+04    0.81551E-03   -0.63145E-02  2050   0.644E-01    0.307E+00
RMM:   4    -0.107834557461E+04   -0.17489E-02   -0.29269E-02  2315   0.378E-01    0.301E+00
RMM:   5    -0.107833086562E+04    0.14709E-01   -0.11464E-02  2040   0.254E-01    0.132E+00
RMM:   6    -0.107833088066E+04   -0.15040E-04   -0.45022E-03  2142   0.148E-01    0.753E-01
RMM:   7    -0.107833206633E+04   -0.11857E-02   -0.24243E-03  2080   0.103E-01    0.942E-01
RMM:   8    -0.107833083168E+04    0.12346E-02   -0.14233E-03  2088   0.886E-02    0.467E-01
RMM:   9    -0.107833145004E+04   -0.61836E-03   -0.14174E-03  2070   0.813E-02    0.606E-01
RMM:  10    -0.107833135832E+04    0.91718E-04   -0.12303E-03  2097   0.760E-02    0.557E-01
RMM:  11    -0.107833096223E+04    0.39609E-03   -0.73937E-04  1984   0.622E-02    0.442E-01
RMM:  12    -0.107833101155E+04   -0.49317E-04   -0.41128E-04  2102   0.449E-02    0.397E-01
RMM:  13    -0.107833087319E+04    0.13835E-03   -0.21116E-04  1965   0.346E-02    0.229E-01
RMM:  14    -0.107833091544E+04   -0.42248E-04   -0.10862E-04  1898   0.239E-02    0.151E-01
RMM:  15    -0.107833089880E+04    0.16642E-04   -0.52805E-05  1703   0.178E-02    0.658E-02
RMM:  16    -0.107833092971E+04   -0.30910E-04   -0.24888E-05  1587   0.119E-02    0.781E-02
RMM:  17    -0.107833092800E+04    0.17130E-05   -0.14101E-05  1406   0.922E-03    0.621E-02
RMM:  18    -0.107833093334E+04   -0.53433E-05   -0.63662E-06  1340   0.641E-03    0.311E-02
RMM:  19    -0.107833094610E+04   -0.12761E-04   -0.52352E-06  1327   0.558E-03    0.429E-02
RMM:  20    -0.107833095151E+04   -0.54144E-05   -0.30697E-06  1262   0.461E-03    0.260E-02
RMM:  21    -0.107833095906E+04   -0.75409E-05   -0.11956E-06  1137   0.269E-03    0.998E-03
RMM:  22    -0.107833096592E+04   -0.68689E-05   -0.84551E-07  1098   0.240E-03    0.851E-03
RMM:  23    -0.107833097221E+04   -0.62853E-05   -0.74797E-07  1103   0.199E-03    0.117E-02
RMM:  24    -0.107833097770E+04   -0.54917E-05   -0.61545E-07  1065   0.193E-03    0.105E-02
RMM:  25    -0.107833098443E+04   -0.67311E-05   -0.43858E-07  1057   0.138E-03    0.658E-03
RMM:  26    -0.107833098788E+04   -0.34495E-05   -0.35803E-07   981   0.137E-03    0.530E-03
RMM:  27    -0.107833099323E+04   -0.53502E-05   -0.34563E-07  1017   0.120E-03    0.441E-03
RMM:  28    -0.107833099792E+04   -0.46906E-05   -0.29671E-07  1016   0.102E-03    0.259E-03
RMM:  29    -0.107833100060E+04   -0.26817E-05   -0.23851E-07   917   0.868E-04    0.325E-03
RMM:  30    -0.107833100197E+04   -0.13692E-05   -0.18055E-07   850   0.811E-04    0.219E-03
RMM:  31    -0.107833100416E+04   -0.21833E-05   -0.17885E-07   902   0.664E-04    0.159E-03
RMM:  32    -0.107833100612E+04   -0.19610E-05   -0.17664E-07   922   0.664E-04    0.140E-03
RMM:  33    -0.107833100690E+04   -0.78537E-06   -0.13139E-07   829   0.580E-04
 171 F= -.10859175E+04 E0= -.10859031E+04  d E =-.172509E-01  mag=    38.1787
 trial-energy change:   -0.017251  1 .order   -0.017255   -0.023439   -0.011071
 step:   0.6678(harm=  0.6678)  dis= 0.02322  next Energy= -1085.922441 (dE=-0.222E-01)
 bond charge predicted
       N       E                     dE             d eps       ncg     rms          rms(c)
DAV:   1    -0.107830570312E+04    0.25303E-01   -0.11518E+01  1848   0.769E+00    0.100E+00
RMM:   2    -0.107834698161E+04   -0.41278E-01   -0.27211E-01  2020   0.120E+00    0.256E+00
RMM:   3    -0.107834610473E+04    0.87688E-03   -0.50126E-02  2045   0.574E-01    0.271E+00
RMM:   4    -0.107834653151E+04   -0.42677E-03   -0.22688E-02  2311   0.335E-01    0.251E+00
RMM:   5    -0.107833589918E+04    0.10632E-01   -0.84817E-03  2042   0.220E-01    0.968E-01
RMM:   6    -0.107833638757E+04   -0.48839E-03   -0.30980E-03  2162   0.120E-01    0.688E-01
RMM:   7    -0.107833734615E+04   -0.95857E-03   -0.18132E-03  2096   0.884E-02    0.900E-01
RMM:   8    -0.107833613151E+04    0.12146E-02   -0.12477E-03  2063   0.842E-02    0.426E-01
RMM:   9    -0.107833665780E+04   -0.52630E-03   -0.11440E-03  2057   0.744E-02    0.533E-01
RMM:  10    -0.107833656974E+04    0.88059E-04   -0.91958E-04  2077   0.668E-02    0.464E-01
RMM:  11    -0.107833631052E+04    0.25923E-03   -0.56878E-04  1981   0.550E-02    0.367E-01
RMM:  12    -0.107833634539E+04   -0.34875E-04   -0.30900E-04  2095   0.386E-02    0.331E-01
RMM:  13    -0.107833623729E+04    0.10810E-03   -0.14825E-04  1915   0.288E-02    0.182E-01
RMM:  14    -0.107833627686E+04   -0.39570E-04   -0.77355E-05  1813   0.204E-02    0.129E-01
RMM:  15    -0.107833626072E+04    0.16141E-04   -0.34776E-05  1614   0.145E-02    0.505E-02
RMM:  16    -0.107833628415E+04   -0.23426E-04   -0.15997E-05  1466   0.959E-03    0.585E-02
RMM:  17    -0.107833628578E+04   -0.16290E-05   -0.99040E-06  1366   0.786E-03    0.498E-02
RMM:  18    -0.107833629179E+04   -0.60075E-05   -0.46545E-06  1311   0.555E-03    0.255E-02
RMM:  19    -0.107833630127E+04   -0.94801E-05   -0.37893E-06  1292   0.476E-03    0.352E-02
RMM:  20    -0.107833630618E+04   -0.49171E-05   -0.21615E-06  1232   0.388E-03    0.207E-02
RMM:  21    -0.107833631252E+04   -0.63337E-05   -0.81720E-07  1107   0.218E-03    0.815E-03
RMM:  22    -0.107833631869E+04   -0.61727E-05   -0.63411E-07  1076   0.200E-03    0.788E-03
RMM:  23    -0.107833632332E+04   -0.46294E-05   -0.60860E-07  1071   0.179E-03    0.989E-03
RMM:  24    -0.107833632870E+04   -0.53767E-05   -0.47587E-07  1059   0.162E-03    0.740E-03
RMM:  25    -0.107833633378E+04   -0.50862E-05   -0.34091E-07  1023   0.123E-03    0.465E-03
RMM:  26    -0.107833633769E+04   -0.39104E-05   -0.30537E-07   986   0.117E-03    0.451E-03
RMM:  27    -0.107833634076E+04   -0.30688E-05   -0.27374E-07   978   0.111E-03    0.436E-03
RMM:  28    -0.107833634438E+04   -0.36204E-05   -0.24061E-07   980   0.896E-04    0.231E-03
RMM:  29    -0.107833634660E+04   -0.22169E-05   -0.19390E-07   896   0.786E-04    0.270E-03
RMM:  30    -0.107833634759E+04   -0.99110E-06   -0.14601E-07   817   0.722E-04
 172 F= -.10859225E+04 E0= -.10859080E+04  d E =-.222448E-01  mag=    38.1806
 curvature:  -2.58 expect dE=-0.145E+00 dE for cont linesearch -0.320E-06
 trial: gam= 0.85136 g(F)=  0.554E-01 g(S)=  0.903E-03 ort = 0.253E-03 (trialstep = 0.415E+00)
 search vector abs. value=  0.429E+00
 bond charge predicted
       N       E                     dE             d eps       ncg     rms          rms(c)
DAV:   1    -0.107830917419E+04    0.27172E-01   -0.16976E+01  1848   0.933E+00    0.120E+00
RMM:   2    -0.107836944255E+04   -0.60268E-01   -0.39795E-01  1989   0.145E+00    0.297E+00
RMM:   3    -0.107837019545E+04   -0.75289E-03   -0.73475E-02  2001   0.700E-01    0.318E+00
RMM:   4    -0.107837329680E+04   -0.31014E-02   -0.34742E-02  2343   0.397E-01    0.376E+00
RMM:   5    -0.107835102256E+04    0.22274E-01   -0.12741E-02  2025   0.262E-01    0.106E+00
RMM:   6    -0.107835459594E+04   -0.35734E-02   -0.56883E-03  2113   0.166E-01    0.781E-01
RMM:   7    -0.107835593519E+04   -0.13392E-02   -0.23261E-03  2188   0.972E-02    0.112E+00
RMM:   8    -0.107835393205E+04    0.20031E-02   -0.15900E-03  2100   0.918E-02    0.550E-01
RMM:   9    -0.107835508335E+04   -0.11513E-02   -0.16766E-03  2048   0.908E-02    0.767E-01
RMM:  10    -0.107835487130E+04    0.21206E-03   -0.14783E-03  2069   0.890E-02    0.855E-01
RMM:  11    -0.107835430542E+04    0.56587E-03   -0.86992E-04  2003   0.705E-02    0.756E-01
RMM:  12    -0.107835386873E+04    0.43669E-03   -0.50842E-04  2138   0.498E-02    0.339E-01
RMM:  13    -0.107835413656E+04   -0.26782E-03   -0.26170E-04  1924   0.388E-02    0.218E-01
RMM:  14    -0.107835427962E+04   -0.14307E-03   -0.18961E-04  1928   0.325E-02    0.207E-01
RMM:  15    -0.107835422133E+04    0.58296E-04   -0.77461E-05  1764   0.210E-02    0.723E-02
RMM:  16    -0.107835424807E+04   -0.26748E-04   -0.29577E-05  1613   0.132E-02    0.963E-02
RMM:  17    -0.107835424883E+04   -0.75220E-06   -0.16904E-05  1462   0.102E-02    0.902E-02
RMM:  18    -0.107835424438E+04    0.44473E-05   -0.72906E-06  1362   0.701E-03    0.302E-02
RMM:  19    -0.107835426582E+04   -0.21442E-04   -0.57363E-06  1361   0.570E-03    0.391E-02
RMM:  20    -0.107835427036E+04   -0.45428E-05   -0.40370E-06  1295   0.528E-03    0.344E-02
RMM:  21    -0.107835427381E+04   -0.34487E-05   -0.13659E-06  1148   0.316E-03    0.149E-02
RMM:  22    -0.107835427762E+04   -0.38059E-05   -0.98831E-07  1134   0.267E-03    0.125E-02
RMM:  23    -0.107835428440E+04   -0.67851E-05   -0.62816E-07  1082   0.198E-03    0.114E-02
RMM:  24    -0.107835429159E+04   -0.71867E-05   -0.72672E-07  1093   0.198E-03    0.155E-02
RMM:  25    -0.107835429548E+04   -0.38947E-05   -0.60182E-07  1063   0.192E-03    0.113E-02
RMM:  26    -0.107835429997E+04   -0.44883E-05   -0.37021E-07  1003   0.130E-03    0.431E-03
RMM:  27    -0.107835430433E+04   -0.43605E-05   -0.33769E-07  1018   0.124E-03    0.484E-03
RMM:  28    -0.107835430782E+04   -0.34848E-05   -0.32011E-07  1013   0.118E-03    0.603E-03
RMM:  29    -0.107835430957E+04   -0.17540E-05   -0.25692E-07   949   0.109E-03    0.509E-03
RMM:  30    -0.107835431206E+04   -0.24918E-05   -0.21872E-07   931   0.835E-04    0.324E-03
RMM:  31    -0.107835431340E+04   -0.13322E-05   -0.15829E-07   856   0.719E-04    0.273E-03
RMM:  32    -0.107835431461E+04   -0.12136E-05   -0.14798E-07   883   0.607E-04    0.269E-03
RMM:  33    -0.107835431554E+04   -0.92758E-06   -0.12753E-07   848   0.599E-04
 173 F= -.10859398E+04 E0= -.10859252E+04  d E =-.173195E-01  mag=    38.1830
 trial-energy change:   -0.017319  1 .order   -0.017296   -0.023480   -0.011113
 step:   0.7888(harm=  0.7888)  dis= 0.02261  next Energy= -1085.944765 (dE=-0.223E-01)
 bond charge predicted
       N       E                     dE             d eps       ncg     rms          rms(c)
DAV:   1    -0.107832354262E+04    0.30772E-01   -0.13706E+01  1848   0.838E+00    0.108E+00
RMM:   2    -0.107837177305E+04   -0.48230E-01   -0.31995E-01  1988   0.130E+00    0.266E+00
RMM:   3    -0.107837217504E+04   -0.40198E-03   -0.58970E-02  2002   0.628E-01    0.287E+00
RMM:   4    -0.107837304105E+04   -0.86602E-03   -0.27310E-02  2337   0.355E-01    0.299E+00
RMM:   5    -0.107835834065E+04    0.14700E-01   -0.91821E-03  2033   0.222E-01    0.943E-01
RMM:   6    -0.107836003157E+04   -0.16909E-02   -0.39915E-03  2133   0.138E-01    0.588E-01
RMM:   7    -0.107836040216E+04   -0.37059E-03   -0.14625E-03  2228   0.782E-02    0.708E-01
RMM:   8    -0.107835974354E+04    0.65861E-03   -0.10878E-03  2087   0.739E-02    0.450E-01
RMM:   9    -0.107836217447E+04   -0.24309E-02   -0.16665E-03  2068   0.830E-02    0.144E+00
RMM:  10    -0.107835975156E+04    0.24229E-02   -0.16977E-03  2070   0.972E-02    0.821E-01
RMM:  11    -0.107835977191E+04   -0.20353E-04   -0.87854E-04  1984   0.747E-02    0.648E-01
RMM:  12    -0.107835959588E+04    0.17603E-03   -0.47191E-04  2072   0.488E-02    0.300E-01
RMM:  13    -0.107835977727E+04   -0.18139E-03   -0.22046E-04  1945   0.344E-02    0.165E-01
RMM:  14    -0.107835988416E+04   -0.10689E-03   -0.12407E-04  1867   0.277E-02    0.163E-01
RMM:  15    -0.107835985623E+04    0.27934E-04   -0.56680E-05  1691   0.184E-02    0.103E-01
RMM:  16    -0.107835985548E+04    0.74561E-06   -0.20761E-05  1472   0.108E-02    0.533E-02
RMM:  17    -0.107835987415E+04   -0.18666E-04   -0.13055E-05  1428   0.904E-03    0.730E-02
RMM:  18    -0.107835986980E+04    0.43464E-05   -0.62325E-06  1348   0.663E-03    0.358E-02
RMM:  19    -0.107835988179E+04   -0.11992E-04   -0.36461E-06  1292   0.465E-03    0.263E-02
RMM:  20    -0.107835988681E+04   -0.50172E-05   -0.27258E-06  1258   0.429E-03    0.273E-02
RMM:  21    -0.107835988936E+04   -0.25472E-05   -0.95394E-07  1106   0.267E-03    0.138E-02
RMM:  22    -0.107835989345E+04   -0.40904E-05   -0.70751E-07  1088   0.218E-03    0.111E-02
RMM:  23    -0.107835989808E+04   -0.46282E-05   -0.66216E-07  1074   0.203E-03    0.101E-02
RMM:  24    -0.107835990411E+04   -0.60290E-05   -0.53743E-07  1079   0.175E-03    0.630E-03
RMM:  25    -0.107835990794E+04   -0.38336E-05   -0.42030E-07  1026   0.151E-03    0.769E-03
RMM:  26    -0.107835991017E+04   -0.22302E-05   -0.30305E-07   976   0.129E-03    0.478E-03
RMM:  27    -0.107835991355E+04   -0.33844E-05   -0.21162E-07   966   0.889E-04    0.312E-03
RMM:  28    -0.107835991701E+04   -0.34561E-05   -0.21831E-07   970   0.887E-04    0.354E-03
RMM:  29    -0.107835991848E+04   -0.14707E-05   -0.18695E-07   905   0.900E-04    0.403E-03
RMM:  30    -0.107835992022E+04   -0.17429E-05   -0.15855E-07   872   0.742E-04    0.249E-03
RMM:  31    -0.107835992145E+04   -0.12263E-05   -0.12282E-07   867   0.622E-04    0.162E-03
RMM:  32    -0.107835992258E+04   -0.11259E-05   -0.11762E-07   834   0.555E-04    0.153E-03
RMM:  33    -0.107835992340E+04   -0.81941E-06   -0.10542E-07   823   0.538E-04
 174 F= -.10859448E+04 E0= -.10859301E+04  d E =-.223245E-01  mag=    38.1851
 curvature:  -2.99 expect dE=-0.161E+00 dE for cont linesearch -0.189E-07
 trial: gam= 0.96223 g(F)=  0.518E-01 g(S)=  0.216E-02 ort =-0.521E-04 (trialstep = 0.466E+00)
 search vector abs. value=  0.451E+00
 bond charge predicted
       N       E                     dE             d eps       ncg     rms          rms(c)
DAV:   1    -0.107831928248E+04    0.40640E-01   -0.22071E+01  1848   0.106E+01    0.141E+00
RMM:   2    -0.107840497517E+04   -0.85693E-01   -0.52898E-01  1970   0.168E+00    0.390E+00
RMM:   3    -0.107839413025E+04    0.10845E-01   -0.97426E-02  1989   0.828E-01    0.309E+00
RMM:   4    -0.107841520139E+04   -0.21071E-01   -0.50920E-02  2315   0.487E-01    0.636E+00
RMM:   5    -0.107836475948E+04    0.50442E-01   -0.27725E-02  2025   0.366E-01    0.134E+00
RMM:   6    -0.107837921616E+04   -0.14457E-01   -0.12844E-02  2023   0.262E-01    0.118E+00
