 running on   24 total cores
 distrk:  each k-point on   24 cores,    1 groups
 distr:  one band on    4 cores,    6 groups
 using from now: INCAR     
 vasp.5.4.4.18Apr17-6-g9f103f2a35 (build May 21 2019 18:55:53) complex          
  
 POSCAR found type information on POSCAR  O  C  H  Co
 POSCAR found :  4 types and     146 ions
 LDA part: xc-table for Pade appr. of Perdew
 POSCAR found type information on POSCAR  O  C  H  Co
 POSCAR found :  4 types and     146 ions
 POSCAR, INCAR and KPOINTS ok, starting setup
 FFT: planning ...
 WAVECAR not read
 WARNING: random wavefunctions but no delay for mixing, default for NELMDL
 entering main loop
       N       E                     dE             d eps       ncg     rms          rms(c)
DAV:   1     0.784620627040E+04    0.78462E+04   -0.31159E+05  1848   0.138E+03
DAV:   2     0.711597789760E+03   -0.71346E+04   -0.64317E+04  2088   0.430E+02
DAV:   3    -0.109757787736E+04   -0.18092E+04   -0.17096E+04  3096   0.215E+02
DAV:   4    -0.124308877578E+04   -0.14551E+03   -0.13616E+03  2880   0.694E+01
DAV:   5    -0.125014296093E+04   -0.70542E+01   -0.65246E+01  2988   0.151E+01    0.148E+02
RMM:   6    -0.168144353404E+04   -0.43130E+03   -0.29440E+03  2360   0.134E+02    0.473E+02
RMM:   7    -0.146188085707E+04    0.21956E+03   -0.21812E+02  1868   0.461E+01    0.285E+02
RMM:   8    -0.108915894622E+04    0.37272E+03   -0.48115E+02  2045   0.456E+01    0.885E+01
RMM:   9    -0.128102850120E+04   -0.19187E+03   -0.13340E+02  2010   0.270E+01    0.175E+02
RMM:  10    -0.128431725204E+04   -0.32888E+01   -0.68039E+01  2063   0.177E+01    0.169E+02
RMM:  11    -0.114780729778E+04    0.13651E+03   -0.48263E+01  1883   0.156E+01    0.125E+02
RMM:  12    -0.117904246102E+04   -0.31235E+02   -0.45433E+01  1903   0.158E+01    0.134E+02
RMM:  13    -0.110129811313E+04    0.77744E+02   -0.50488E+01  1942   0.166E+01    0.112E+02
RMM:  14    -0.109142522420E+04    0.98729E+01   -0.40414E+01  1939   0.144E+01    0.104E+02
RMM:  15    -0.105921203355E+04    0.32213E+02   -0.23535E+01  2025   0.104E+01    0.798E+01
RMM:  16    -0.105270357253E+04    0.65085E+01   -0.12206E+01  1993   0.768E+00    0.660E+01
RMM:  17    -0.106507762014E+04   -0.12374E+02   -0.13515E+01  1960   0.841E+00    0.877E+01
RMM:  18    -0.105282181680E+04    0.12256E+02   -0.11127E+01  1956   0.769E+00    0.704E+01
RMM:  19    -0.104531461929E+04    0.75072E+01   -0.42954E+00  2016   0.453E+00    0.468E+01
RMM:  20    -0.104521553651E+04    0.99083E-01   -0.15898E+00  1984   0.268E+00    0.396E+01
RMM:  21    -0.104625197704E+04   -0.10364E+01   -0.11981E+00  1979   0.240E+00    0.387E+01
RMM:  22    -0.104602649174E+04    0.22549E+00   -0.73294E-01  1933   0.193E+00    0.343E+01
RMM:  23    -0.104558065195E+04    0.44584E+00   -0.27687E-01  1932   0.119E+00    0.293E+01
RMM:  24    -0.104620426805E+04   -0.62362E+00   -0.24182E-01  1958   0.105E+00    0.312E+01
RMM:  25    -0.104686746273E+04   -0.66319E+00   -0.16461E-01  1967   0.882E-01    0.314E+01
RMM:  26    -0.104706563876E+04   -0.19818E+00   -0.10178E-01  1942   0.680E-01    0.331E+01
RMM:  27    -0.104689524474E+04    0.17039E+00   -0.55637E-02  2000   0.491E-01    0.330E+01
RMM:  28    -0.104721806043E+04   -0.32282E+00   -0.61298E-02  1963   0.474E-01    0.342E+01
RMM:  29    -0.104891350533E+04   -0.16954E+01   -0.66196E-01  1915   0.171E+00    0.368E+01
RMM:  30    -0.104903843367E+04   -0.12493E+00   -0.25527E-01  1967   0.114E+00    0.330E+01
RMM:  31    -0.104980591891E+04   -0.76749E+00   -0.17476E-01  2016   0.833E-01    0.339E+01
RMM:  32    -0.104995072074E+04   -0.14480E+00   -0.49269E-02  1963   0.479E-01    0.332E+01
RMM:  33    -0.105261879042E+04   -0.26681E+01   -0.10495E+00  1888   0.213E+00    0.359E+01
RMM:  34    -0.105369639696E+04   -0.10776E+01   -0.14070E+00  1955   0.254E+00    0.403E+01
RMM:  35    -0.105530313304E+04   -0.16067E+01   -0.86622E-01  1984   0.194E+00    0.379E+01
RMM:  36    -0.105556482046E+04   -0.26169E+00   -0.71565E-01  1951   0.181E+00    0.370E+01
RMM:  37    -0.105550545997E+04    0.59360E-01   -0.20943E-01  1993   0.102E+00    0.369E+01
RMM:  38    -0.105537150680E+04    0.13395E+00   -0.92645E-02  1955   0.627E-01    0.363E+01
RMM:  39    -0.105527589658E+04    0.95610E-01   -0.81031E-02  2034   0.584E-01    0.361E+01
RMM:  40    -0.105516933384E+04    0.10656E+00   -0.21481E-01  1913   0.948E-01    0.326E+01
RMM:  41    -0.105645411114E+04   -0.12848E+01   -0.16872E-01  2015   0.787E-01    0.329E+01
RMM:  42    -0.105749717416E+04   -0.10431E+01   -0.29153E-01  1916   0.103E+00    0.317E+01
RMM:  43    -0.105808808764E+04   -0.59091E+00   -0.18842E-01  2111   0.780E-01    0.293E+01
RMM:  44    -0.105923817947E+04   -0.11501E+01   -0.30977E-01  1910   0.113E+00    0.273E+01
RMM:  45    -0.105978033960E+04   -0.54216E+00   -0.20069E-01  2043   0.913E-01    0.255E+01
RMM:  46    -0.106109881679E+04   -0.13185E+01   -0.31609E-01  1896   0.109E+00    0.246E+01
RMM:  47    -0.106205397439E+04   -0.95516E+00   -0.19903E-01  2105   0.842E-01    0.261E+01
RMM:  48    -0.106270493530E+04   -0.65096E+00   -0.12656E-01  2054   0.644E-01    0.263E+01
RMM:  49    -0.106355043353E+04   -0.84550E+00   -0.20990E-01  1959   0.844E-01    0.244E+01
RMM:  50    -0.106428959134E+04   -0.73916E+00   -0.14433E-01  2131   0.700E-01    0.227E+01
RMM:  51    -0.106676282797E+04   -0.24732E+01   -0.14077E+00  1867   0.255E+00    0.245E+01
RMM:  52    -0.106672510898E+04    0.37719E-01   -0.49644E-01  2150   0.140E+00    0.261E+01
RMM:  53    -0.106655300600E+04    0.17210E+00   -0.14669E-01  2038   0.832E-01    0.272E+01
RMM:  54    -0.106650950690E+04    0.43499E-01   -0.69744E-02  2126   0.527E-01    0.273E+01
RMM:  55    -0.106651474143E+04   -0.52345E-02   -0.14599E-02  2062   0.249E-01    0.271E+01
RMM:  56    -0.106758457389E+04   -0.10698E+01   -0.16368E+00  1965   0.261E+00    0.359E+01
RMM:  57    -0.106822467115E+04   -0.64010E+00   -0.66642E-01  1921   0.192E+00    0.345E+01
RMM:  58    -0.106785769097E+04    0.36698E+00   -0.30698E-01  2123   0.103E+00    0.308E+01
RMM:  59    -0.106786273739E+04   -0.50464E-02   -0.11792E-01  2009   0.721E-01    0.295E+01
RMM:  60    -0.106803435780E+04   -0.17162E+00   -0.79771E-02  2049   0.567E-01    0.293E+01
RMM:  61    -0.107025758229E+04   -0.22232E+01   -0.12246E+00  1938   0.226E+00    0.409E+01
RMM:  62    -0.106778308475E+04    0.24745E+01   -0.40498E-01  1874   0.150E+00    0.325E+01
RMM:  63    -0.106754827510E+04    0.23481E+00   -0.15725E-01  2073   0.831E-01    0.296E+01
RMM:  64    -0.106784926924E+04   -0.30099E+00   -0.10976E-01  2030   0.657E-01    0.297E+01
RMM:  65    -0.106801250592E+04   -0.16324E+00   -0.10495E-01  1921   0.633E-01    0.303E+01
RMM:  66    -0.106772990575E+04    0.28260E+00   -0.13098E+00  1886   0.240E+00    0.375E+01
RMM:  67    -0.106753639175E+04    0.19351E+00   -0.35428E-01  1883   0.143E+00    0.287E+01
RMM:  68    -0.106756451598E+04   -0.28124E-01   -0.17804E-01  2043   0.896E-01    0.265E+01
RMM:  69    -0.106761739124E+04   -0.52875E-01   -0.62807E-02  2041   0.583E-01    0.251E+01
RMM:  70    -0.106798137972E+04   -0.36399E+00   -0.12630E-01  1880   0.745E-01    0.252E+01
RMM:  71    -0.106818780683E+04   -0.20643E+00   -0.62587E-01  1939   0.160E+00    0.321E+01
RMM:  72    -0.106747886982E+04    0.70894E+00   -0.26367E-01  1972   0.108E+00    0.283E+01
RMM:  73    -0.106780090968E+04   -0.32204E+00   -0.11791E-01  2164   0.668E-01    0.283E+01
RMM:  74    -0.106801564508E+04   -0.21474E+00   -0.10335E-01  2013   0.671E-01    0.284E+01
RMM:  75    -0.106763292683E+04    0.38272E+00   -0.81808E-02  1947   0.624E-01    0.267E+01
RMM:  76    -0.106785344425E+04   -0.22052E+00   -0.91004E-01  1905   0.198E+00    0.268E+01
RMM:  77    -0.106802820281E+04   -0.17476E+00   -0.44888E-01  1878   0.166E+00    0.289E+01
RMM:  78    -0.106765717897E+04    0.37102E+00   -0.12402E-01  1887   0.850E-01    0.268E+01
RMM:  79    -0.106784548211E+04   -0.18830E+00   -0.83066E-02  1976   0.624E-01    0.268E+01
RMM:  80    -0.106809897985E+04   -0.25350E+00   -0.20625E-02  1902   0.360E-01    0.267E+01
RMM:  81    -0.106909108927E+04   -0.99211E+00   -0.55074E-01  1923   0.158E+00    0.284E+01
RMM:  82    -0.106909727075E+04   -0.61815E-02   -0.21996E-01  2004   0.103E+00    0.306E+01
RMM:  83    -0.106877697315E+04    0.32030E+00   -0.19677E-01  1936   0.101E+00    0.330E+01
RMM:  84    -0.106834941839E+04    0.42755E+00   -0.11944E-01  1933   0.818E-01    0.297E+01
RMM:  85    -0.106838474545E+04   -0.35327E-01   -0.35456E-02  2093   0.416E-01    0.303E+01
RMM:  86    -0.106796605508E+04    0.41869E+00   -0.17065E+00  1866   0.270E+00    0.222E+01
RMM:  87    -0.106896787748E+04   -0.10018E+01   -0.37204E-01  1919   0.138E+00    0.243E+01
RMM:  88    -0.106916177646E+04   -0.19390E+00   -0.30971E-01  1939   0.113E+00    0.308E+01
RMM:  89    -0.106914780196E+04    0.13974E-01   -0.10085E-01  2124   0.640E-01    0.308E+01
RMM:  90    -0.106878624775E+04    0.36155E+00   -0.11882E-01  1975   0.649E-01    0.300E+01
RMM:  91    -0.106959390477E+04   -0.80766E+00   -0.24677E+00  1883   0.334E+00    0.300E+01
RMM:  92    -0.106947156978E+04    0.12233E+00   -0.99669E-01  1959   0.238E+00    0.240E+01
RMM:  93    -0.106997918260E+04   -0.50761E+00   -0.60511E-01  1905   0.166E+00    0.178E+01
RMM:  94    -0.107078555347E+04   -0.80637E+00   -0.43953E-01  1953   0.141E+00    0.114E+01
RMM:  95    -0.107192795048E+04   -0.11424E+01   -0.33351E-01  1997   0.115E+00    0.103E+01
RMM:  96    -0.107275100467E+04   -0.82305E+00   -0.29574E-01  2035   0.107E+00    0.926E+00
RMM:  97    -0.107370137568E+04   -0.95037E+00   -0.21164E-01  2043   0.883E-01    0.116E+01
RMM:  98    -0.107400620935E+04   -0.30483E+00   -0.98275E-02  2066   0.585E-01    0.122E+01
RMM:  99    -0.107414611460E+04   -0.13991E+00   -0.39433E-02  2107   0.361E-01    0.111E+01
RMM: 100    -0.107488657341E+04   -0.74046E+00   -0.12541E-01  1873   0.597E-01    0.830E+00
RMM: 101    -0.107517573556E+04   -0.28916E+00   -0.11766E-01  1989   0.787E-01    0.988E+00
RMM: 102    -0.107549336352E+04   -0.31763E+00   -0.71748E-02  1984   0.567E-01    0.106E+01
RMM: 103    -0.107573848112E+04   -0.24512E+00   -0.58744E-02  1978   0.484E-01    0.981E+00
RMM: 104    -0.107613034068E+04   -0.39186E+00   -0.46931E-02  2012   0.358E-01    0.101E+01
RMM: 105    -0.107627838718E+04   -0.14805E+00   -0.35719E-02  2029   0.368E-01    0.925E+00
RMM: 106    -0.107635000764E+04   -0.71620E-01   -0.45144E-02  1927   0.462E-01    0.919E+00
RMM: 107    -0.107655226307E+04   -0.20226E+00   -0.27820E-02  2004   0.338E-01    0.105E+01
RMM: 108    -0.107652552130E+04    0.26742E-01   -0.77496E-03  2208   0.174E-01    0.107E+01
RMM: 109    -0.107649343646E+04    0.32085E-01   -0.34621E-03  2228   0.984E-02    0.105E+01
RMM: 110    -0.107650480109E+04   -0.11365E-01   -0.14654E-03  2090   0.713E-02    0.102E+01
RMM: 111    -0.107642111523E+04    0.83686E-01   -0.11421E-01  1998   0.719E-01    0.115E+01
RMM: 112    -0.107638892771E+04    0.32188E-01   -0.47276E-02  1936   0.546E-01    0.101E+01
RMM: 113    -0.107640315259E+04   -0.14225E-01   -0.71690E-03  2198   0.172E-01    0.101E+01
RMM: 114    -0.107641986876E+04   -0.16716E-01   -0.16113E-03  2229   0.731E-02    0.101E+01
RMM: 115    -0.107653407956E+04   -0.11421E+00   -0.27965E-02  1910   0.352E-01    0.119E+01
RMM: 116    -0.107676603292E+04   -0.23195E+00   -0.10822E-01  1941   0.756E-01    0.162E+01
RMM: 117    -0.107668078318E+04    0.85250E-01   -0.33653E-02  1918   0.431E-01    0.153E+01
RMM: 118    -0.107663563787E+04    0.45145E-01   -0.13476E-02  2214   0.220E-01    0.141E+01
RMM: 119    -0.107674094094E+04   -0.10530E+00   -0.75452E-03  1948   0.179E-01    0.137E+01
RMM: 120    -0.107678990653E+04   -0.48966E-01   -0.50114E-03  2199   0.137E-01
   1 F= -.10843341E+04 E0= -.10843142E+04  d E =-.108433E+04  mag=    30.4563
 curvature:   0.00 expect dE= 0.000E+00 dE for cont linesearch  0.000E+00
 trial: gam= 0.00000 g(F)=  0.407E+00 g(S)=  0.488E-01 ort = 0.000E+00 (trialstep = 0.100E+01)
 search vector abs. value=  0.456E+00
 bond charge predicted
       N       E                     dE             d eps       ncg     rms          rms(c)
DAV:   1    -0.107592747034E+04    0.81347E+00   -0.15105E+02  1908   0.257E+01    0.161E+01
RMM:   2    -0.110902494408E+04   -0.33097E+02   -0.27313E+01  1903   0.127E+01    0.897E+01
RMM:   3    -0.108284105459E+04    0.26184E+02   -0.14756E+01  1904   0.969E+00    0.468E+01
RMM:   4    -0.107610288723E+04    0.67382E+01   -0.30615E+00  2012   0.420E+00    0.174E+01
RMM:   5    -0.107737378642E+04   -0.12709E+01   -0.19400E+00  2072   0.257E+00    0.289E+01
RMM:   6    -0.107604837954E+04    0.13254E+01   -0.91340E-01  2004   0.208E+00    0.680E+00
RMM:   7    -0.107669474372E+04   -0.64636E+00   -0.65479E-01  1984   0.176E+00    0.101E+01
RMM:   8    -0.107666682380E+04    0.27920E-01   -0.33644E-01  2049   0.133E+00    0.750E+00
RMM:   9    -0.107678313933E+04   -0.11632E+00   -0.22954E-01  2026   0.103E+00    0.865E+00
RMM:  10    -0.107681728907E+04   -0.34150E-01   -0.12806E-01  2026   0.796E-01    0.421E+00
RMM:  11    -0.107711498829E+04   -0.29770E+00   -0.15296E-01  2035   0.838E-01    0.575E+00
RMM:  12    -0.107721773093E+04   -0.10274E+00   -0.88692E-02  1998   0.668E-01    0.366E+00
RMM:  13    -0.107738195895E+04   -0.16423E+00   -0.63582E-02  2020   0.553E-01    0.351E+00
RMM:  14    -0.107756916876E+04   -0.18721E+00   -0.57167E-02  2038   0.502E-01    0.297E+00
RMM:  15    -0.107769393668E+04   -0.12477E+00   -0.31608E-02  2089   0.365E-01    0.176E+00
RMM:  16    -0.107784226636E+04   -0.14833E+00   -0.20423E-02  1960   0.301E-01    0.147E+00
RMM:  17    -0.107798607805E+04   -0.14381E+00   -0.15097E-02  2086   0.230E-01    0.111E+00
RMM:  18    -0.107807732651E+04   -0.91248E-01   -0.79111E-03  2077   0.173E-01    0.776E-01
RMM:  19    -0.107818379880E+04   -0.10647E+00   -0.67956E-03  2034   0.134E-01    0.775E-01
RMM:  20    -0.107826397207E+04   -0.80173E-01   -0.48827E-03  2080   0.122E-01    0.572E-01
RMM:  21    -0.107840667846E+04   -0.14271E+00   -0.90749E-03  1922   0.127E-01    0.420E-01
RMM:  22    -0.107849436156E+04   -0.87683E-01   -0.58088E-03  2211   0.101E-01    0.405E-01
RMM:  23    -0.107853761884E+04   -0.43257E-01   -0.24219E-03  2178   0.727E-02    0.392E-01
RMM:  24    -0.107858435426E+04   -0.46735E-01   -0.19027E-03  2123   0.645E-02    0.245E-01
RMM:  25    -0.107864333390E+04   -0.58980E-01   -0.27914E-03  2078   0.673E-02    0.271E-01
RMM:  26    -0.107868280605E+04   -0.39472E-01   -0.21200E-03  2161   0.626E-02    0.211E-01
RMM:  27    -0.107872082092E+04   -0.38015E-01   -0.22530E-03  2129   0.552E-02    0.138E-01
RMM:  28    -0.107874606412E+04   -0.25243E-01   -0.18111E-03  2273   0.442E-02    0.873E-02
RMM:  29    -0.107875816064E+04   -0.12097E-01   -0.99639E-04  2214   0.292E-02    0.652E-02
RMM:  30    -0.107876304617E+04   -0.48855E-02   -0.41137E-04  2210   0.210E-02    0.510E-02
RMM:  31    -0.107876544972E+04   -0.24035E-02   -0.20007E-04  2069   0.134E-02    0.411E-02
RMM:  32    -0.107876694757E+04   -0.14979E-02   -0.10399E-04  2019   0.106E-02    0.291E-02
RMM:  33    -0.107876769360E+04   -0.74602E-03   -0.49242E-05  1854   0.754E-03    0.226E-02
RMM:  34    -0.107876819327E+04   -0.49967E-03   -0.26052E-05  1772   0.570E-03    0.169E-02
RMM:  35    -0.107876864072E+04   -0.44745E-03   -0.21600E-05  1682   0.452E-03    0.132E-02
RMM:  36    -0.107876890997E+04   -0.26924E-03   -0.12641E-05  1606   0.404E-03    0.928E-03
RMM:  37    -0.107876910834E+04   -0.19838E-03   -0.91565E-06  1486   0.306E-03    0.660E-03
RMM:  38    -0.107876925153E+04   -0.14319E-03   -0.59402E-06  1365   0.297E-03    0.491E-03
RMM:  39    -0.107876934040E+04   -0.88866E-04   -0.40851E-06  1293   0.222E-03    0.322E-03
RMM:  40    -0.107876940394E+04   -0.63539E-04   -0.26511E-06  1230   0.208E-03    0.227E-03
RMM:  41    -0.107876945387E+04   -0.49933E-04   -0.25763E-06  1214   0.173E-03    0.162E-03
RMM:  42    -0.107876948501E+04   -0.31137E-04   -0.16804E-06  1131   0.164E-03    0.122E-03
RMM:  43    -0.107876950671E+04   -0.21707E-04   -0.16137E-06  1111   0.145E-03    0.967E-04
RMM:  44    -0.107876952121E+04   -0.14493E-04   -0.14943E-06  1120   0.144E-03    0.811E-04
RMM:  45    -0.107876952601E+04   -0.47991E-05   -0.97062E-07   997   0.127E-03    0.753E-04
RMM:  46    -0.107876952727E+04   -0.12686E-05   -0.58424E-07   923   0.106E-03    0.567E-04
RMM:  47    -0.107876952577E+04    0.15051E-05   -0.24318E-07   822   0.797E-04    0.412E-04
RMM:  48    -0.107876952756E+04   -0.17884E-05   -0.25456E-07   794   0.590E-04    0.278E-04
RMM:  49    -0.107876952812E+04   -0.55815E-06   -0.16414E-07   815   0.671E-04
   2 F= -.10862876E+04 E0= -.10862808E+04  d E =-.195344E+01  mag=    27.7993
 trial-energy change:   -1.953444  1 .order   -0.048805   -0.455588    0.357978
 step:   0.9699(harm=  0.5600)  dis= 0.04884  next Energy= -1086.292895 (dE=-0.196E+01)
 bond charge predicted
       N       E                     dE             d eps       ncg     rms          rms(c)
DAV:   1    -0.107877886922E+04   -0.93417E-02   -0.13407E-01  1986   0.747E-01    0.167E-01
RMM:   2    -0.107877904726E+04   -0.17804E-03   -0.28098E-03  2064   0.121E-01    0.165E-01
RMM:   3    -0.107877969229E+04   -0.64503E-03   -0.10127E-03  2196   0.655E-02    0.483E-01
RMM:   4    -0.107877896282E+04    0.72947E-03   -0.39761E-04  2151   0.449E-02    0.188E-01
RMM:   5    -0.107877908549E+04   -0.12267E-03   -0.18901E-04  1964   0.305E-02    0.141E-01
RMM:   6    -0.107877908925E+04   -0.37558E-05   -0.83753E-05  1900   0.201E-02    0.118E-01
RMM:   7    -0.107877906680E+04    0.22451E-04   -0.48699E-05  1713   0.160E-02    0.714E-02
RMM:   8    -0.107877906793E+04   -0.11361E-05   -0.28784E-05  1701   0.122E-02    0.528E-02
RMM:   9    -0.107877907223E+04   -0.42992E-05   -0.17749E-05  1493   0.994E-03    0.559E-02
RMM:  10    -0.107877907273E+04   -0.49888E-06   -0.14652E-05  1421   0.882E-03    0.559E-02
RMM:  11    -0.107877907204E+04    0.69158E-06   -0.86905E-06  1335   0.713E-03
   3 F= -.10862980E+04 E0= -.10862912E+04  d E =-.196387E+01  mag=    27.7997
 curvature:  -0.04 expect dE=-0.647E-01 dE for cont linesearch -0.925E-02
 ZBRENT: interpolating
 opt :   0.5571  next Energy= -1086.367673 (dE=-0.203E+01)
 bond charge predicted
       N       E                     dE             d eps       ncg     rms          rms(c)
DAV:   1    -0.107880464795E+04   -0.25575E-01   -0.25199E+01  1884   0.102E+01    0.232E+00
RMM:   2    -0.107886440321E+04   -0.59755E-01   -0.57905E-01  2033   0.172E+00    0.244E+00
RMM:   3    -0.107900274883E+04   -0.13835E+00   -0.20522E-01  2219   0.919E-01    0.993E+00
RMM:   4    -0.107882424758E+04    0.17850E+00   -0.76976E-02  2170   0.609E-01    0.307E+00
RMM:   5    -0.107885741333E+04   -0.33166E-01   -0.61286E-02  2031   0.558E-01    0.258E+00
RMM:   6    -0.107885630775E+04    0.11056E-02   -0.22804E-02  2126   0.335E-01    0.197E+00
RMM:   7    -0.107885245668E+04    0.38511E-02   -0.11459E-02  2100   0.241E-01    0.155E+00
RMM:   8    -0.107884734449E+04    0.51122E-02   -0.58074E-03  2134   0.170E-01    0.101E+00
RMM:   9    -0.107884688949E+04    0.45500E-03   -0.42334E-03  2061   0.138E-01    0.999E-01
RMM:  10    -0.107884634306E+04    0.54643E-03   -0.30305E-03  2071   0.122E-01    0.693E-01
RMM:  11    -0.107884631014E+04    0.32928E-04   -0.19442E-03  2051   0.987E-02    0.498E-01
RMM:  12    -0.107884639253E+04   -0.82390E-04   -0.92750E-04  2088   0.697E-02    0.321E-01
RMM:  13    -0.107884661146E+04   -0.21894E-03   -0.65914E-04  2058   0.544E-02    0.272E-01
RMM:  14    -0.107884688418E+04   -0.27271E-03   -0.26346E-04  2077   0.367E-02    0.156E-01
RMM:  15    -0.107884702026E+04   -0.13608E-03   -0.15307E-04  1954   0.264E-02    0.150E-01
RMM:  16    -0.107884719243E+04   -0.17217E-03   -0.63729E-05  1832   0.177E-02    0.100E-01
RMM:  17    -0.107884733878E+04   -0.14635E-03   -0.39222E-05  1771   0.127E-02    0.989E-02
RMM:  18    -0.107884739601E+04   -0.57233E-04   -0.28254E-05  1599   0.112E-02    0.667E-02
RMM:  19    -0.107884750731E+04   -0.11130E-03   -0.15358E-05  1601   0.792E-03    0.484E-02
RMM:  20    -0.107884757587E+04   -0.68559E-04   -0.97770E-06  1454   0.646E-03    0.500E-02
RMM:  21    -0.107884761364E+04   -0.37773E-04   -0.69426E-06  1387   0.544E-03    0.491E-02
RMM:  22    -0.107884764954E+04   -0.35896E-04   -0.43023E-06  1328   0.439E-03    0.354E-02
RMM:  23    -0.107884769686E+04   -0.47321E-04   -0.44731E-06  1408   0.374E-03    0.212E-02
RMM:  24    -0.107884773962E+04   -0.42757E-04   -0.35109E-06  1326   0.339E-03    0.161E-02
RMM:  25    -0.107884776564E+04   -0.26024E-04   -0.22703E-06  1223   0.317E-03    0.141E-02
RMM:  26    -0.107884780445E+04   -0.38807E-04   -0.22262E-06  1199   0.273E-03    0.703E-03
RMM:  27    -0.107884783811E+04   -0.33665E-04   -0.17929E-06  1144   0.243E-03    0.511E-03
RMM:  28    -0.107884787234E+04   -0.34221E-04   -0.19082E-06  1148   0.224E-03    0.328E-03
RMM:  29    -0.107884789925E+04   -0.26917E-04   -0.14710E-06  1099   0.188E-03    0.279E-03
RMM:  30    -0.107884791678E+04   -0.17528E-04   -0.11320E-06  1065   0.160E-03    0.296E-03
RMM:  31    -0.107884793807E+04   -0.21292E-04   -0.14773E-06  1112   0.164E-03    0.185E-03
RMM:  32    -0.107884795345E+04   -0.15377E-04   -0.11227E-06  1056   0.151E-03    0.146E-03
RMM:  33    -0.107884796224E+04   -0.87898E-05   -0.90338E-07  1030   0.130E-03    0.102E-03
RMM:  34    -0.107884796779E+04   -0.55537E-05   -0.70047E-07   995   0.119E-03    0.840E-04
RMM:  35    -0.107884797143E+04   -0.36368E-05   -0.55537E-07   982   0.102E-03    0.646E-04
RMM:  36    -0.107884797387E+04   -0.24378E-05   -0.46658E-07   961   0.938E-04    0.501E-04
RMM:  37    -0.107884797509E+04   -0.12185E-05   -0.33197E-07   909   0.817E-04    0.433E-04
RMM:  38    -0.107884797572E+04   -0.63034E-06   -0.23234E-07   845   0.696E-04
   4 F= -.10863786E+04 E0= -.10863724E+04  d E =-.204448E+01  mag=    27.8127
 curvature:  -0.28 expect dE=-0.194E+00 dE for cont linesearch -0.174E-02
 trial: gam= 1.64426 g(F)=  0.525E+00 g(S)=  0.170E+00 ort =-0.534E-01 (trialstep = 0.237E+00)
 search vector abs. value=  0.175E+01
 bond charge predicted
       N       E                     dE             d eps       ncg     rms          rms(c)
DAV:   1    -0.107886156470E+04   -0.13590E-01   -0.35754E+01  1860   0.103E+01    0.219E+00
RMM:   2    -0.107894066125E+04   -0.79097E-01   -0.57200E-01  1986   0.168E+00    0.250E+00
RMM:   3    -0.107901804523E+04   -0.77384E-01   -0.19625E-01  2228   0.861E-01    0.356E+00
RMM:   4    -0.107897495104E+04    0.43094E-01   -0.61987E-02  2145   0.532E-01    0.268E+00
RMM:   5    -0.107895714491E+04    0.17806E-01   -0.26217E-02  2118   0.333E-01    0.149E+00
RMM:   6    -0.107895841228E+04   -0.12674E-02   -0.10578E-02  2122   0.211E-01    0.125E+00
RMM:   7    -0.107895791110E+04    0.50118E-03   -0.70996E-03  2128   0.174E-01    0.983E-01
RMM:   8    -0.107895967087E+04   -0.17598E-02   -0.68688E-03  2112   0.171E-01    0.126E+00
RMM:   9    -0.107896094588E+04   -0.12750E-02   -0.62930E-03  2144   0.162E-01    0.136E+00
RMM:  10    -0.107895676358E+04    0.41823E-02   -0.31075E-03  2039   0.130E-01    0.454E-01
RMM:  11    -0.107895752525E+04   -0.76167E-03   -0.14646E-03  2042   0.810E-02    0.394E-01
RMM:  12    -0.107895763711E+04   -0.11186E-03   -0.80478E-04  2066   0.664E-02    0.253E-01
RMM:  13    -0.107895775509E+04   -0.11798E-03   -0.31502E-04  2039   0.414E-02    0.212E-01
RMM:  14    -0.107895773120E+04    0.23893E-04   -0.15600E-04  1956   0.275E-02    0.991E-02
RMM:  15    -0.107895786494E+04   -0.13374E-03   -0.52380E-05  1740   0.171E-02    0.708E-02
RMM:  16    -0.107895796349E+04   -0.98552E-04   -0.29269E-05  1661   0.119E-02    0.637E-02
RMM:  17    -0.107895804248E+04   -0.78995E-04   -0.15619E-05  1458   0.919E-03    0.322E-02
RMM:  18    -0.107895814558E+04   -0.10309E-03   -0.12446E-05  1449   0.751E-03    0.413E-02
RMM:  19    -0.107895823484E+04   -0.89269E-04   -0.88460E-06  1384   0.672E-03    0.246E-02
RMM:  20    -0.107895833050E+04   -0.95656E-04   -0.51779E-06  1350   0.486E-03    0.216E-02
RMM:  21    -0.107895838171E+04   -0.51210E-04   -0.35659E-06  1263   0.421E-03    0.175E-02
RMM:  22    -0.107895845842E+04   -0.76708E-04   -0.27212E-06  1254   0.338E-03    0.883E-03
RMM:  23    -0.107895854215E+04   -0.83734E-04   -0.27586E-06  1273   0.297E-03    0.138E-02
RMM:  24    -0.107895858849E+04   -0.46334E-04   -0.16796E-06  1155   0.252E-03    0.882E-03
RMM:  25    -0.107895865932E+04   -0.70833E-04   -0.19275E-06  1169   0.201E-03    0.401E-03
RMM:  26    -0.107895872069E+04   -0.61371E-04   -0.18019E-06  1144   0.190E-03    0.321E-03
RMM:  27    -0.107895876964E+04   -0.48950E-04   -0.17281E-06  1096   0.175E-03    0.249E-03
RMM:  28    -0.107895880659E+04   -0.36945E-04   -0.15570E-06  1107   0.166E-03    0.186E-03
RMM:  29    -0.107895883666E+04   -0.30071E-04   -0.15098E-06  1083   0.150E-03    0.144E-03
RMM:  30    -0.107895885763E+04   -0.20970E-04   -0.12116E-06  1055   0.145E-03    0.117E-03
RMM:  31    -0.107895887191E+04   -0.14288E-04   -0.10572E-06  1004   0.130E-03    0.842E-04
RMM:  32    -0.107895888111E+04   -0.91911E-05   -0.84667E-07   988   0.123E-03    0.555E-04
RMM:  33    -0.107895888836E+04   -0.72506E-05   -0.80753E-07   950   0.111E-03    0.442E-04
RMM:  34    -0.107895889192E+04   -0.35680E-05   -0.62097E-07   948   0.107E-03    0.279E-04
RMM:  35    -0.107895889332E+04   -0.13962E-05   -0.44004E-07   862   0.882E-04    0.213E-04
RMM:  36    -0.107895889394E+04   -0.62430E-06   -0.29304E-07   798   0.772E-04
   5 F= -.10864918E+04 E0= -.10864857E+04  d E =-.113246E+00  mag=    27.8308
 trial-energy change:   -0.113246  1 .order   -0.112660   -0.144086   -0.081235
 step:   0.5105(harm=  0.5434)  dis= 0.06274  next Energy= -1086.539594 (dE=-0.161E+00)
 bond charge predicted
       N       E                     dE             d eps       ncg     rms          rms(c)
DAV:   1    -0.107887339469E+04    0.85499E-01   -0.47581E+01  1848   0.118E+01    0.252E+00
RMM:   2    -0.107898388551E+04   -0.11049E+00   -0.79401E-01  1982   0.198E+00    0.311E+00
RMM:   3    -0.107907458260E+04   -0.90697E-01   -0.26637E-01  2222   0.101E+00    0.395E+00
RMM:   4    -0.107903524151E+04    0.39341E-01   -0.84100E-02  2150   0.622E-01    0.337E+00
RMM:   5    -0.107900429417E+04    0.30947E-01   -0.37076E-02  2101   0.406E-01    0.176E+00
RMM:   6    -0.107900609248E+04   -0.17983E-02   -0.16253E-02  2138   0.258E-01    0.156E+00
RMM:   7    -0.107900326640E+04    0.28261E-02   -0.94873E-03  2141   0.208E-01    0.957E-01
RMM:   8    -0.107900544882E+04   -0.21824E-02   -0.93546E-03  2111   0.201E-01    0.110E+00
RMM:   9    -0.107900681622E+04   -0.13674E-02   -0.67099E-03  2198   0.169E-01    0.139E+00
RMM:  10    -0.107900313996E+04    0.36763E-02   -0.38099E-03  2028   0.135E-01    0.691E-01
RMM:  11    -0.107900374487E+04   -0.60491E-03   -0.22439E-03  2025   0.995E-02    0.563E-01
RMM:  12    -0.107900369116E+04    0.53710E-04   -0.12839E-03  2063   0.834E-02    0.357E-01
RMM:  13    -0.107900377485E+04   -0.83691E-04   -0.61712E-04  2056   0.575E-02    0.281E-01
RMM:  14    -0.107900368217E+04    0.92680E-04   -0.25443E-04  2011   0.377E-02    0.111E-01
RMM:  15    -0.107900384361E+04   -0.16143E-03   -0.81847E-05  1905   0.204E-02    0.887E-02
RMM:  16    -0.107900394044E+04   -0.96836E-04   -0.44514E-05  1722   0.149E-02    0.767E-02
RMM:  17    -0.107900404738E+04   -0.10694E-03   -0.18085E-05  1550   0.953E-03    0.438E-02
RMM:  18    -0.107900413980E+04   -0.92423E-04   -0.16122E-05  1463   0.853E-03    0.436E-02
RMM:  19    -0.107900427752E+04   -0.13771E-03   -0.10476E-05  1448   0.709E-03    0.225E-02
RMM:  20    -0.107900438507E+04   -0.10755E-03   -0.56468E-06  1367   0.514E-03    0.199E-02
RMM:  21    -0.107900445278E+04   -0.67712E-04   -0.41472E-06  1306   0.446E-03    0.221E-02
RMM:  22    -0.107900452261E+04   -0.69828E-04   -0.28963E-06  1265   0.378E-03    0.112E-02
RMM:  23    -0.107900461144E+04   -0.88827E-04   -0.26158E-06  1258   0.303E-03    0.124E-02
RMM:  24    -0.107900467612E+04   -0.64683E-04   -0.18522E-06  1176   0.260E-03    0.900E-03
RMM:  25    -0.107900474490E+04   -0.68780E-04   -0.16137E-06  1144   0.212E-03    0.478E-03
RMM:  26    -0.107900482934E+04   -0.84441E-04   -0.20568E-06  1183   0.186E-03    0.324E-03
RMM:  27    -0.107900491220E+04   -0.82854E-04   -0.22581E-06  1184   0.182E-03    0.300E-03
RMM:  28    -0.107900497635E+04   -0.64158E-04   -0.22038E-06  1150   0.175E-03    0.201E-03
RMM:  29    -0.107900502207E+04   -0.45719E-04   -0.19484E-06  1144   0.167E-03    0.152E-03
RMM:  30    -0.107900505889E+04   -0.36821E-04   -0.19113E-06  1123   0.159E-03    0.111E-03
RMM:  31    -0.107900507818E+04   -0.19291E-04   -0.13308E-06  1050   0.148E-03    0.861E-04
RMM:  32    -0.107900508808E+04   -0.98942E-05   -0.92590E-07   980   0.126E-03    0.714E-04
RMM:  33    -0.107900509600E+04   -0.79233E-05   -0.76536E-07   956   0.113E-03    0.598E-04
RMM:  34    -0.107900510087E+04   -0.48626E-05   -0.61363E-07   931   0.105E-03    0.388E-04
RMM:  35    -0.107900510310E+04   -0.22390E-05   -0.46632E-07   908   0.931E-04    0.247E-04
RMM:  36    -0.107900510405E+04   -0.94419E-06   -0.32237E-07   830   0.791E-04
   6 F= -.10865398E+04 E0= -.10865335E+04  d E =-.161254E+00  mag=    27.8528
 curvature:  -0.77 expect dE=-0.388E+00 dE for cont linesearch -0.506E-05
 trial: gam= 0.19896 g(F)=  0.408E+00 g(S)=  0.928E-01 ort = 0.338E-02 (trialstep = 0.292E+00)
 search vector abs. value=  0.572E+00
 bond charge predicted
       N       E                     dE             d eps       ncg     rms          rms(c)
DAV:   1    -0.107908862319E+04   -0.83520E-01   -0.12119E+01  1932   0.816E+00    0.206E+00
RMM:   2    -0.107910006864E+04   -0.11445E-01   -0.42420E-01  2088   0.153E+00    0.228E+00
RMM:   3    -0.107914332827E+04   -0.43260E-01   -0.11415E-01  2112   0.818E-01    0.397E+00
RMM:   4    -0.107911006180E+04    0.33266E-01   -0.61813E-02  2257   0.558E-01    0.266E+00
RMM:   5    -0.107909342723E+04    0.16635E-01   -0.30005E-02  2089   0.386E-01    0.148E+00
RMM:   6    -0.107909201209E+04    0.14151E-02   -0.13637E-02  2152   0.254E-01    0.122E+00
RMM:   7    -0.107908983020E+04    0.21819E-02   -0.65545E-03  2151   0.180E-01    0.777E-01
RMM:   8    -0.107908927786E+04    0.55234E-03   -0.47020E-03  2110   0.149E-01    0.711E-01
RMM:   9    -0.107909099662E+04   -0.17188E-02   -0.38321E-03  2214   0.128E-01    0.113E+00
RMM:  10    -0.107908840416E+04    0.25925E-02   -0.27062E-03  2075   0.113E-01    0.591E-01
RMM:  11    -0.107908836159E+04    0.42570E-04   -0.14986E-03  2065   0.846E-02    0.388E-01
RMM:  12    -0.107908816791E+04    0.19369E-03   -0.84034E-04  2084   0.650E-02    0.203E-01
RMM:  13    -0.107908812088E+04    0.47025E-04   -0.33954E-04  2123   0.402E-02    0.180E-01
RMM:  14    -0.107908804283E+04    0.78048E-04   -0.12040E-04  1953   0.261E-02    0.591E-02
RMM:  15    -0.107908807583E+04   -0.32994E-04   -0.52865E-05  1784   0.155E-02    0.821E-02
RMM:  16    -0.107908808042E+04   -0.45887E-05   -0.24375E-05  1694   0.111E-02    0.344E-02
RMM:  17    -0.107908811205E+04   -0.31629E-04   -0.11233E-05  1426   0.751E-03    0.329E-02
RMM:  18    -0.107908814364E+04   -0.31595E-04   -0.64403E-06  1337   0.593E-03    0.218E-02
RMM:  19    -0.107908817995E+04   -0.36310E-04   -0.33041E-06  1281   0.435E-03    0.137E-02
RMM:  20    -0.107908822655E+04   -0.46599E-04   -0.21168E-06  1238   0.301E-03    0.132E-02
RMM:  21    -0.107908825422E+04   -0.27667E-04   -0.18466E-06  1229   0.310E-03    0.121E-02
RMM:  22    -0.107908830079E+04   -0.46571E-04   -0.16681E-06  1182   0.246E-03    0.665E-03
RMM:  23    -0.107908834342E+04   -0.42637E-04   -0.16010E-06  1187   0.237E-03    0.987E-03
RMM:  24    -0.107908836933E+04   -0.25903E-04   -0.10399E-06  1108   0.204E-03    0.583E-03
RMM:  25    -0.107908841250E+04   -0.43172E-04   -0.13116E-06  1127   0.165E-03    0.289E-03
RMM:  26    -0.107908845495E+04   -0.42454E-04   -0.13401E-06  1100   0.152E-03    0.223E-03
RMM:  27    -0.107908849468E+04   -0.39730E-04   -0.14214E-06  1112   0.146E-03    0.176E-03
RMM:  28    -0.107908852868E+04   -0.33994E-04   -0.15690E-06  1104   0.146E-03    0.143E-03
RMM:  29    -0.107908855471E+04   -0.26029E-04   -0.13431E-06  1071   0.141E-03    0.113E-03
RMM:  30    -0.107908857942E+04   -0.24710E-04   -0.17549E-06  1163   0.143E-03    0.899E-04
RMM:  31    -0.107908859101E+04   -0.11595E-04   -0.11402E-06  1003   0.129E-03    0.659E-04
RMM:  32    -0.107908859856E+04   -0.75457E-05   -0.84911E-07   975   0.115E-03    0.581E-04
RMM:  33    -0.107908860307E+04   -0.45164E-05   -0.64642E-07   936   0.105E-03    0.420E-04
RMM:  34    -0.107908860517E+04   -0.20913E-05   -0.44758E-07   862   0.903E-04    0.249E-04
RMM:  35    -0.107908860669E+04   -0.15281E-05   -0.33471E-07   852   0.776E-04    0.198E-04
RMM:  36    -0.107908860743E+04   -0.73845E-06   -0.22389E-07   797   0.677E-04
   7 F= -.10866285E+04 E0= -.10866226E+04  d E =-.886213E-01  mag=    27.8891
 trial-energy change:   -0.088621  1 .order   -0.088255   -0.146323   -0.030186
 step:   0.3658(harm=  0.3676)  dis= 0.01323  next Energy= -1086.632306 (dE=-0.925E-01)
 bond charge predicted
       N       E                     dE             d eps       ncg     rms          rms(c)
DAV:   1    -0.107909206361E+04   -0.34569E-02   -0.78366E-01  1956   0.208E+00    0.512E-01
RMM:   2    -0.107909265030E+04   -0.58670E-03   -0.27483E-02  2084   0.390E-01    0.519E-01
RMM:   3    -0.107909551081E+04   -0.28605E-02   -0.66883E-03  2104   0.202E-01    0.107E+00
RMM:   4    -0.107909250869E+04    0.30021E-02   -0.36031E-03  2259   0.137E-01    0.535E-01
RMM:   5    -0.107909258548E+04   -0.76785E-04   -0.16068E-03  2104   0.887E-02    0.449E-01
RMM:   6    -0.107909213379E+04    0.45169E-03   -0.74274E-04  2130   0.627E-02    0.236E-01
RMM:   7    -0.107909216179E+04   -0.28000E-04   -0.40637E-04  2082   0.442E-02    0.223E-01
RMM:   8    -0.107909214003E+04    0.21753E-04   -0.32692E-04  2116   0.393E-02    0.180E-01
RMM:   9    -0.107909208329E+04    0.56742E-04   -0.19745E-04  2035   0.314E-02    0.119E-01
RMM:  10    -0.107909206557E+04    0.17723E-04   -0.92168E-05  1914   0.226E-02    0.728E-02
RMM:  11    -0.107909205666E+04    0.89033E-05   -0.35692E-05  1718   0.143E-02    0.479E-02
RMM:  12    -0.107909205437E+04    0.22955E-05   -0.14932E-05  1459   0.902E-03    0.310E-02
RMM:  13    -0.107909205857E+04   -0.42011E-05   -0.84203E-06  1337   0.673E-03    0.409E-02
RMM:  14    -0.107909205687E+04    0.16963E-05   -0.45446E-06  1283   0.527E-03    0.221E-02
RMM:  15    -0.107909205818E+04   -0.13026E-05   -0.20133E-06  1202   0.352E-03    0.127E-02
RMM:  16    -0.107909206150E+04   -0.33265E-05   -0.97556E-07  1116   0.265E-03    0.768E-03
RMM:  17    -0.107909206529E+04   -0.37828E-05   -0.54141E-07  1075   0.197E-03    0.462E-03
RMM:  18    -0.107909206938E+04   -0.40950E-05   -0.34625E-07  1072   0.141E-03    0.569E-03
RMM:  19    -0.107909207175E+04   -0.23687E-05   -0.29938E-07  1066   0.135E-03    0.419E-03
RMM:  20    -0.107909207512E+04   -0.33751E-05   -0.17495E-07  1032   0.935E-04    0.245E-03
RMM:  21    -0.107909207868E+04   -0.35513E-05   -0.14596E-07   968   0.806E-04    0.318E-03
RMM:  22    -0.107909208145E+04   -0.27759E-05   -0.12547E-07   897   0.775E-04    0.199E-03
RMM:  23    -0.107909208614E+04   -0.46840E-05   -0.12568E-07   865   0.611E-04    0.109E-03
RMM:  24    -0.107909208938E+04   -0.32484E-05   -0.11040E-07   847   0.627E-04    0.164E-03
RMM:  25    -0.107909209237E+04   -0.29834E-05   -0.10925E-07   798   0.582E-04    0.790E-04
RMM:  26    -0.107909209522E+04   -0.28578E-05   -0.10052E-07   787   0.525E-04    0.510E-04
RMM:  27    -0.107909209791E+04   -0.26825E-05   -0.10146E-07   772   0.486E-04    0.397E-04
RMM:  28    -0.107909210078E+04   -0.28677E-05   -0.11494E-07   798   0.497E-04    0.332E-04
RMM:  29    -0.107909210303E+04   -0.22511E-05   -0.11830E-07   813   0.505E-04    0.298E-04
RMM:  30    -0.107909210495E+04   -0.19234E-05   -0.12106E-07   795   0.501E-04    0.214E-04
RMM:  31    -0.107909210646E+04   -0.15056E-05   -0.11926E-07   772   0.500E-04    0.180E-04
RMM:  32    -0.107909210722E+04   -0.76579E-06   -0.98389E-08   734   0.479E-04
   8 F= -.10866323E+04 E0= -.10866265E+04  d E =-.924243E-01  mag=    27.8975
 curvature:  -0.21 expect dE=-0.334E-01 dE for cont linesearch -0.130E-07
 trial: gam= 0.32322 g(F)=  0.150E+00 g(S)=  0.931E-02 ort = 0.188E-03 (trialstep = 0.307E+00)
 search vector abs. value=  0.220E+00
 bond charge predicted
       N       E                     dE             d eps       ncg     rms          rms(c)
DAV:   1    -0.107911450040E+04   -0.22394E-01   -0.52546E+00  1908   0.524E+00    0.118E+00
RMM:   2    -0.107912388050E+04   -0.93801E-02   -0.15335E-01  2178   0.899E-01    0.184E+00
RMM:   3    -0.107913792869E+04   -0.14048E-01   -0.46722E-02  2190   0.485E-01    0.242E+00
RMM:   4    -0.107912890481E+04    0.90239E-02   -0.23025E-02  2235   0.339E-01    0.181E+00
RMM:   5    -0.107911884438E+04    0.10060E-01   -0.11008E-02  2116   0.234E-01    0.814E-01
RMM:   6    -0.107911959726E+04   -0.75288E-03   -0.48251E-03  2154   0.145E-01    0.870E-01
RMM:   7    -0.107911843447E+04    0.11628E-02   -0.26380E-03  2126   0.113E-01    0.560E-01
RMM:   8    -0.107911843581E+04   -0.13438E-05   -0.16747E-03  2126   0.841E-02    0.620E-01
RMM:   9    -0.107911809080E+04    0.34501E-03   -0.15649E-03  2132   0.823E-02    0.423E-01
RMM:  10    -0.107911775984E+04    0.33096E-03   -0.82225E-04  2127   0.652E-02    0.289E-01
RMM:  11    -0.107911765466E+04    0.10518E-03   -0.46289E-04  2082   0.473E-02    0.190E-01
RMM:  12    -0.107911763546E+04    0.19199E-04   -0.21320E-04  2061   0.341E-02    0.103E-01
RMM:  13    -0.107911767255E+04   -0.37092E-04   -0.10791E-04  1943   0.233E-02    0.105E-01
RMM:  14    -0.107911766652E+04    0.60280E-05   -0.52300E-05  1675   0.165E-02    0.518E-02
RMM:  15    -0.107911769582E+04   -0.29295E-04   -0.20345E-05  1511   0.107E-02    0.367E-02
RMM:  16    -0.107911772709E+04   -0.31269E-04   -0.99807E-06  1387   0.710E-03    0.268E-02
RMM:  17    -0.107911775159E+04   -0.24504E-04   -0.45532E-06  1289   0.507E-03    0.147E-02
RMM:  18    -0.107911778002E+04   -0.28426E-04   -0.24152E-06  1228   0.351E-03    0.148E-02
RMM:  19    -0.107911779473E+04   -0.14714E-04   -0.16971E-06  1171   0.312E-03    0.114E-02
RMM:  20    -0.107911781881E+04   -0.24084E-04   -0.12447E-06  1142   0.243E-03    0.737E-03
RMM:  21    -0.107911784202E+04   -0.23210E-04   -0.12274E-06  1145   0.221E-03    0.102E-02
RMM:  22    -0.107911785960E+04   -0.17576E-04   -0.10116E-06  1127   0.206E-03    0.515E-03
RMM:  23    -0.107911788885E+04   -0.29246E-04   -0.12594E-06  1143   0.162E-03    0.374E-03
RMM:  24    -0.107911790818E+04   -0.19329E-04   -0.90215E-07  1102   0.159E-03    0.406E-03
RMM:  25    -0.107911792006E+04   -0.11884E-04   -0.75791E-07   983   0.140E-03    0.240E-03
RMM:  26    -0.107911793942E+04   -0.19365E-04   -0.10371E-06  1102   0.133E-03    0.157E-03
RMM:  27    -0.107911795376E+04   -0.14340E-04   -0.90759E-07   995   0.130E-03    0.120E-03
RMM:  28    -0.107911796425E+04   -0.10487E-04   -0.80971E-07   995   0.119E-03    0.903E-04
RMM:  29    -0.107911797613E+04   -0.11880E-04   -0.99458E-07  1041   0.121E-03    0.745E-04
RMM:  30    -0.107911798488E+04   -0.87462E-05   -0.92591E-07  1025   0.121E-03    0.682E-04
RMM:  31    -0.107911799007E+04   -0.51976E-05   -0.74944E-07   933   0.113E-03    0.567E-04
RMM:  32    -0.107911799329E+04   -0.32138E-05   -0.58078E-07   926   0.102E-03    0.382E-04
RMM:  33    -0.107911799576E+04   -0.24746E-05   -0.47062E-07   921   0.908E-04    0.291E-04
RMM:  34    -0.107911799701E+04   -0.12429E-05   -0.33072E-07   845   0.805E-04    0.226E-04
RMM:  35    -0.107911799789E+04   -0.88053E-06   -0.23848E-07   817   0.673E-04
   9 F= -.10866686E+04 E0= -.10866629E+04  d E =-.362893E-01  mag=    27.9035
 trial-energy change:   -0.036289  1 .order   -0.036397   -0.048983   -0.023810
 step:   0.6121(harm=  0.5965)  dis= 0.01113  next Energy= -1086.680321 (dE=-0.481E-01)
 bond charge predicted
       N       E                     dE             d eps       ncg     rms          rms(c)
DAV:   1    -0.107911528801E+04    0.27090E-02   -0.52203E+00  1908   0.523E+00    0.117E+00
RMM:   2    -0.107912408376E+04   -0.87958E-02   -0.15233E-01  2179   0.896E-01    0.175E+00
RMM:   3    -0.107913924276E+04   -0.15159E-01   -0.46350E-02  2183   0.482E-01    0.244E+00
RMM:   4    -0.107912905786E+04    0.10185E-01   -0.22536E-02  2241   0.336E-01    0.175E+00
RMM:   5    -0.107911956446E+04    0.94934E-02   -0.10830E-02  2119   0.230E-01    0.791E-01
RMM:   6    -0.107912025487E+04   -0.69041E-03   -0.47094E-03  2156   0.143E-01    0.833E-01
RMM:   7    -0.107911912035E+04    0.11345E-02   -0.25555E-03  2121   0.111E-01    0.524E-01
RMM:   8    -0.107911928082E+04   -0.16047E-03   -0.16605E-03  2135   0.836E-02    0.637E-01
RMM:   9    -0.107911883799E+04    0.44283E-03   -0.15139E-03  2127   0.811E-02    0.414E-01
RMM:  10    -0.107911854880E+04    0.28919E-03   -0.80016E-04  2125   0.643E-02    0.287E-01
RMM:  11    -0.107911842545E+04    0.12335E-03   -0.43371E-04  2081   0.462E-02    0.177E-01
RMM:  12    -0.107911842350E+04    0.19483E-05   -0.19806E-04  2055   0.329E-02    0.104E-01
RMM:  13    -0.107911845050E+04   -0.26993E-04   -0.10057E-04  1933   0.228E-02    0.951E-02
RMM:  14    -0.107911845252E+04   -0.20262E-05   -0.48210E-05  1668   0.158E-02    0.545E-02
RMM:  15    -0.107911847863E+04   -0.26105E-04   -0.19258E-05  1491   0.105E-02    0.338E-02
RMM:  16    -0.107911851115E+04   -0.32520E-04   -0.94987E-06  1383   0.696E-03    0.276E-02
RMM:  17    -0.107911853312E+04   -0.21973E-04   -0.45637E-06  1294   0.516E-03    0.146E-02
RMM:  18    -0.107911856169E+04   -0.28574E-04   -0.23757E-06  1229   0.347E-03    0.144E-02
RMM:  19    -0.107911857623E+04   -0.14539E-04   -0.16806E-06  1176   0.313E-03    0.109E-02
RMM:  20    -0.107911859999E+04   -0.23760E-04   -0.12247E-06  1137   0.240E-03    0.724E-03
RMM:  21    -0.107911862174E+04   -0.21746E-04   -0.11760E-06  1144   0.220E-03    0.986E-03
RMM:  22    -0.107911863885E+04   -0.17111E-04   -0.97654E-07  1125   0.202E-03    0.519E-03
RMM:  23    -0.107911866666E+04   -0.27807E-04   -0.12148E-06  1142   0.164E-03    0.393E-03
RMM:  24    -0.107911868169E+04   -0.15035E-04   -0.80578E-07  1092   0.162E-03    0.461E-03
RMM:  25    -0.107911869637E+04   -0.14681E-04   -0.79121E-07   988   0.138E-03    0.210E-03
RMM:  26    -0.107911871434E+04   -0.17966E-04   -0.94427E-07  1091   0.134E-03    0.166E-03
RMM:  27    -0.107911872826E+04   -0.13917E-04   -0.88131E-07   988   0.126E-03    0.112E-03
RMM:  28    -0.107911874034E+04   -0.12088E-04   -0.87182E-07  1009   0.121E-03    0.860E-04
RMM:  29    -0.107911875171E+04   -0.11365E-04   -0.99225E-07  1039   0.122E-03    0.807E-04
RMM:  30    -0.107911875943E+04   -0.77233E-05   -0.86406E-07   996   0.120E-03    0.754E-04
RMM:  31    -0.107911876573E+04   -0.62952E-05   -0.80132E-07   963   0.113E-03    0.474E-04
RMM:  32    -0.107911876927E+04   -0.35402E-05   -0.62914E-07   950   0.107E-03    0.340E-04
RMM:  33    -0.107911877129E+04   -0.20200E-05   -0.47816E-07   893   0.902E-04    0.283E-04
RMM:  34    -0.107911877245E+04   -0.11662E-05   -0.33377E-07   838   0.811E-04    0.215E-04
RMM:  35    -0.107911877331E+04   -0.85434E-06   -0.23913E-07   804   0.669E-04
  10 F= -.10866797E+04 E0= -.10866741E+04  d E =-.474050E-01  mag=    27.9092
 curvature:  -0.41 expect dE=-0.523E-01 dE for cont linesearch -0.333E-04
 trial: gam= 0.82252 g(F)=  0.126E+00 g(S)=  0.193E-02 ort =-0.423E-02 (trialstep = 0.300E+00)
 search vector abs. value=  0.269E+00
 bond charge predicted
       N       E                     dE             d eps       ncg     rms          rms(c)
DAV:   1    -0.107911915027E+04   -0.37781E-03   -0.67260E+00  1860   0.563E+00    0.106E+00
RMM:   2    -0.107913612471E+04   -0.16974E-01   -0.15239E-01  2208   0.888E-01    0.148E+00
RMM:   3    -0.107915265407E+04   -0.16529E-01   -0.44309E-02  2234   0.459E-01    0.235E+00
RMM:   4    -0.107914272607E+04    0.99280E-02   -0.18201E-02  2249   0.294E-01    0.153E+00
RMM:   5    -0.107913487621E+04    0.78499E-02   -0.76021E-03  2133   0.192E-01    0.639E-01
RMM:   6    -0.107913533641E+04   -0.46020E-03   -0.33056E-03  2174   0.116E-01    0.657E-01
RMM:   7    -0.107913480428E+04    0.53213E-03   -0.18075E-03  2175   0.898E-02    0.453E-01
RMM:   8    -0.107913499061E+04   -0.18634E-03   -0.13424E-03  2134   0.752E-02    0.562E-01
RMM:   9    -0.107913467707E+04    0.31355E-03   -0.12782E-03  2120   0.759E-02    0.374E-01
RMM:  10    -0.107913438548E+04    0.29158E-03   -0.64248E-04  2132   0.575E-02    0.214E-01
RMM:  11    -0.107913434363E+04    0.41855E-04   -0.33861E-04  2055   0.405E-02    0.148E-01
RMM:  12    -0.107913433204E+04    0.11594E-04   -0.14356E-04  1987   0.277E-02    0.924E-02
RMM:  13    -0.107913434561E+04   -0.13577E-04   -0.67283E-05  1757   0.190E-02    0.698E-02
RMM:  14    -0.107913436761E+04   -0.21996E-04   -0.35175E-05  1625   0.132E-02    0.582E-02
RMM:  15    -0.107913439244E+04   -0.24835E-04   -0.15795E-05  1464   0.956E-03    0.286E-02
RMM:  16    -0.107913441894E+04   -0.26500E-04   -0.76050E-06  1353   0.638E-03    0.257E-02
RMM:  17    -0.107913444181E+04   -0.22868E-04   -0.39258E-06  1286   0.483E-03    0.137E-02
RMM:  18    -0.107913447005E+04   -0.28237E-04   -0.22241E-06  1233   0.342E-03    0.118E-02
RMM:  19    -0.107913448809E+04   -0.18045E-04   -0.18303E-06  1188   0.317E-03    0.129E-02
RMM:  20    -0.107913450885E+04   -0.20755E-04   -0.12993E-06  1149   0.261E-03    0.648E-03
RMM:  21    -0.107913453115E+04   -0.22298E-04   -0.91488E-07  1107   0.199E-03    0.645E-03
RMM:  22    -0.107913454782E+04   -0.16677E-04   -0.83842E-07  1115   0.189E-03    0.652E-03
RMM:  23    -0.107913457154E+04   -0.23716E-04   -0.82990E-07  1099   0.158E-03    0.340E-03
RMM:  24    -0.107913458667E+04   -0.15129E-04   -0.62894E-07  1000   0.140E-03    0.382E-03
RMM:  25    -0.107913460259E+04   -0.15921E-04   -0.64362E-07  1017   0.127E-03    0.249E-03
RMM:  26    -0.107913462015E+04   -0.17556E-04   -0.69373E-07   993   0.119E-03    0.145E-03
RMM:  27    -0.107913463592E+04   -0.15777E-04   -0.74499E-07  1001   0.111E-03    0.111E-03
RMM:  28    -0.107913464883E+04   -0.12903E-04   -0.74574E-07   993   0.110E-03    0.833E-04
RMM:  29    -0.107913465882E+04   -0.99932E-05   -0.73939E-07   976   0.107E-03    0.720E-04
RMM:  30    -0.107913466637E+04   -0.75483E-05   -0.68899E-07   968   0.106E-03    0.546E-04
RMM:  31    -0.107913467258E+04   -0.62100E-05   -0.71566E-07   965   0.102E-03    0.422E-04
RMM:  32    -0.107913467590E+04   -0.33219E-05   -0.56514E-07   931   0.995E-04    0.310E-04
RMM:  33    -0.107913467757E+04   -0.16751E-05   -0.41723E-07   864   0.839E-04    0.254E-04
RMM:  34    -0.107913467864E+04   -0.10622E-05   -0.29697E-07   827   0.755E-04    0.172E-04
RMM:  35    -0.107913467930E+04   -0.65891E-06   -0.21013E-07   794   0.633E-04
  11 F= -.10867064E+04 E0= -.10867009E+04  d E =-.267074E-01  mag=    27.9191
 trial-energy change:   -0.026707  1 .order   -0.026751   -0.037271   -0.016231
 step:   0.5306(harm=  0.5306)  dis= 0.01155  next Energy= -1086.712688 (dE=-0.330E-01)
 bond charge predicted
       N       E                     dE             d eps       ncg     rms          rms(c)
DAV:   1    -0.107912365239E+04    0.11026E-01   -0.40038E+00  1902   0.434E+00    0.814E-01
RMM:   2    -0.107913338627E+04   -0.97339E-02   -0.90435E-02  2208   0.685E-01    0.105E+00
RMM:   3    -0.107914442689E+04   -0.11041E-01   -0.26203E-02  2235   0.354E-01    0.191E+00
RMM:   4    -0.107913670207E+04    0.77248E-02   -0.10540E-02  2256   0.225E-01    0.109E+00
RMM:   5    -0.107913281426E+04    0.38878E-02   -0.41770E-03  2143   0.141E-01    0.441E-01
RMM:   6    -0.107913321933E+04   -0.40507E-03   -0.18395E-03  2160   0.871E-02    0.483E-01
RMM:   7    -0.107913290384E+04    0.31549E-03   -0.10837E-03  2172   0.697E-02    0.335E-01
RMM:   8    -0.107913305272E+04   -0.14888E-03   -0.79297E-04  2116   0.582E-02    0.431E-01
RMM:   9    -0.107913283100E+04    0.22172E-03   -0.71330E-04  2097   0.575E-02    0.266E-01
RMM:  10    -0.107913268940E+04    0.14160E-03   -0.34046E-04  2100   0.423E-02    0.150E-01
RMM:  11    -0.107913267101E+04    0.18388E-04   -0.17127E-04  1980   0.291E-02    0.105E-01
RMM:  12    -0.107913266737E+04    0.36386E-05   -0.69203E-05  1798   0.193E-02    0.649E-02
RMM:  13    -0.107913267679E+04   -0.94181E-05   -0.31721E-05  1600   0.133E-02    0.463E-02
RMM:  14    -0.107913269336E+04   -0.16572E-04   -0.17230E-05  1440   0.939E-03    0.428E-02
RMM:  15    -0.107913270900E+04   -0.15642E-04   -0.78493E-06  1353   0.708E-03    0.181E-02
RMM:  16    -0.107913272906E+04   -0.20059E-04   -0.37466E-06  1291   0.455E-03    0.184E-02
RMM:  17    -0.107913274268E+04   -0.13623E-04   -0.24299E-06  1223   0.386E-03    0.111E-02
RMM:  18    -0.107913275998E+04   -0.17295E-04   -0.13399E-06  1141   0.277E-03    0.850E-03
RMM:  19    -0.107913277184E+04   -0.11866E-04   -0.10907E-06  1129   0.249E-03    0.970E-03
RMM:  20    -0.107913278364E+04   -0.11796E-04   -0.82774E-07  1109   0.208E-03    0.574E-03
RMM:  21    -0.107913279813E+04   -0.14486E-04   -0.60804E-07  1096   0.160E-03    0.453E-03
RMM:  22    -0.107913280811E+04   -0.99811E-05   -0.48771E-07  1030   0.140E-03    0.468E-03
RMM:  23    -0.107913282420E+04   -0.16094E-04   -0.53030E-07  1040   0.122E-03    0.239E-03
RMM:  24    -0.107913283524E+04   -0.11044E-04   -0.43739E-07   986   0.111E-03    0.224E-03
RMM:  25    -0.107913284428E+04   -0.90364E-05   -0.40837E-07   909   0.992E-04    0.214E-03
RMM:  26    -0.107913285449E+04   -0.10211E-04   -0.42433E-07   968   0.960E-04    0.118E-03
RMM:  27    -0.107913286463E+04   -0.10136E-04   -0.47606E-07   949   0.905E-04    0.808E-04
RMM:  28    -0.107913287169E+04   -0.70619E-05   -0.43820E-07   938   0.891E-04    0.638E-04
RMM:  29    -0.107913287764E+04   -0.59544E-05   -0.43972E-07   919   0.831E-04    0.479E-04
RMM:  30    -0.107913288282E+04   -0.51788E-05   -0.44176E-07   920   0.862E-04    0.410E-04
RMM:  31    -0.107913288651E+04   -0.36879E-05   -0.43110E-07   937   0.828E-04    0.322E-04
RMM:  32    -0.107913288863E+04   -0.21221E-05   -0.35061E-07   888   0.797E-04    0.253E-04
RMM:  33    -0.107913288968E+04   -0.10475E-05   -0.26014E-07   825   0.684E-04    0.190E-04
RMM:  34    -0.107913289047E+04   -0.79467E-06   -0.19639E-07   793   0.617E-04
  12 F= -.10867125E+04 E0= -.10867072E+04  d E =-.328446E-01  mag=    27.9269
 curvature:  -0.57 expect dE=-0.495E-01 dE for cont linesearch -0.941E-06
 trial: gam= 0.62101 g(F)=  0.836E-01 g(S)=  0.262E-02 ort =-0.664E-03 (trialstep = 0.346E+00)
 search vector abs. value=  0.189E+00
 bond charge predicted
       N       E                     dE             d eps       ncg     rms          rms(c)
DAV:   1    -0.107913496379E+04   -0.20741E-02   -0.58145E+00  1860   0.521E+00    0.871E-01
RMM:   2    -0.107914875951E+04   -0.13796E-01   -0.12089E-01  2208   0.805E-01    0.738E-01
RMM:   3    -0.107916010633E+04   -0.11347E-01   -0.24966E-02  2250   0.360E-01    0.177E+00
RMM:   4    -0.107915256070E+04    0.75456E-02   -0.95911E-03  2259   0.212E-01    0.929E-01
RMM:   5    -0.107915033932E+04    0.22214E-02   -0.32853E-03  2145   0.125E-01    0.314E-01
RMM:   6    -0.107915089023E+04   -0.55091E-03   -0.14713E-03  2198   0.784E-02    0.448E-01
RMM:   7    -0.107915063395E+04    0.25629E-03   -0.99167E-04  2162   0.670E-02    0.336E-01
RMM:   8    -0.107915084808E+04   -0.21413E-03   -0.83780E-04  2094   0.606E-02    0.428E-01
RMM:   9    -0.107915070049E+04    0.14759E-03   -0.69523E-04  2088   0.572E-02    0.296E-01
RMM:  10    -0.107915047210E+04    0.22839E-03   -0.31897E-04  2012   0.417E-02    0.115E-01
RMM:  11    -0.107915049397E+04   -0.21877E-04   -0.14667E-04  1919   0.261E-02    0.101E-01
RMM:  12    -0.107915047653E+04    0.17446E-04   -0.55574E-05  1734   0.168E-02    0.471E-02
RMM:  13    -0.107915049058E+04   -0.14050E-04   -0.20222E-05  1485   0.107E-02    0.403E-02
RMM:  14    -0.107915050257E+04   -0.11994E-04   -0.12736E-05  1395   0.805E-03    0.389E-02
RMM:  15    -0.107915051454E+04   -0.11965E-04   -0.53871E-06  1324   0.592E-03    0.148E-02
RMM:  16    -0.107915053058E+04   -0.16043E-04   -0.33878E-06  1274   0.413E-03    0.205E-02
RMM:  17    -0.107915054202E+04   -0.11441E-04   -0.25488E-06  1243   0.390E-03    0.102E-02
RMM:  18    -0.107915055752E+04   -0.15497E-04   -0.14270E-06  1166   0.286E-03    0.105E-02
RMM:  19    -0.107915056926E+04   -0.11740E-04   -0.12279E-06  1163   0.274E-03    0.979E-03
RMM:  20    -0.107915058030E+04   -0.11038E-04   -0.73602E-07  1094   0.206E-03    0.482E-03
RMM:  21    -0.107915059365E+04   -0.13356E-04   -0.55241E-07  1071   0.152E-03    0.462E-03
RMM:  22    -0.107915060302E+04   -0.93645E-05   -0.45823E-07   996   0.145E-03    0.354E-03
RMM:  23    -0.107915061790E+04   -0.14884E-04   -0.47305E-07  1030   0.114E-03    0.225E-03
RMM:  24    -0.107915062743E+04   -0.95333E-05   -0.36431E-07   951   0.104E-03    0.154E-03
RMM:  25    -0.107915063708E+04   -0.96444E-05   -0.38045E-07   914   0.876E-04    0.214E-03
RMM:  26    -0.107915064342E+04   -0.63426E-05   -0.30624E-07   894   0.912E-04    0.132E-03
RMM:  27    -0.107915065280E+04   -0.93801E-05   -0.41506E-07   945   0.778E-04    0.819E-04
RMM:  28    -0.107915065920E+04   -0.64014E-05   -0.33370E-07   925   0.848E-04    0.684E-04
RMM:  29    -0.107915066398E+04   -0.47746E-05   -0.32807E-07   864   0.700E-04    0.451E-04
RMM:  30    -0.107915066929E+04   -0.53182E-05   -0.33767E-07   923   0.784E-04    0.442E-04
RMM:  31    -0.107915067303E+04   -0.37316E-05   -0.34391E-07   905   0.736E-04    0.295E-04
RMM:  32    -0.107915067571E+04   -0.26811E-05   -0.31051E-07   884   0.748E-04    0.291E-04
RMM:  33    -0.107915067696E+04   -0.12502E-05   -0.23998E-07   831   0.659E-04    0.215E-04
RMM:  34    -0.107915067785E+04   -0.89034E-06   -0.18676E-07   796   0.601E-04
  13 F= -.10867340E+04 E0= -.10867289E+04  d E =-.215281E-01  mag=    27.9370
 trial-energy change:   -0.021528  1 .order   -0.021549   -0.029659   -0.013439
 step:   0.6322(harm=  0.6322)  dis= 0.01220  next Energy= -1086.739636 (dE=-0.271E-01)
 bond charge predicted
       N       E                     dE             d eps       ncg     rms          rms(c)
DAV:   1    -0.107914251779E+04    0.81592E-02   -0.39913E+00  1878   0.432E+00    0.720E-01
RMM:   2    -0.107915182678E+04   -0.93090E-02   -0.82792E-02  2205   0.667E-01    0.582E-01
RMM:   3    -0.107915928824E+04   -0.74615E-02   -0.16259E-02  2241   0.293E-01    0.147E+00
RMM:   4    -0.107915411118E+04    0.51771E-02   -0.62620E-03  2265   0.171E-01    0.698E-01
RMM:   5    -0.107915308959E+04    0.10216E-02   -0.20521E-03  2149   0.987E-02    0.268E-01
RMM:   6    -0.107915336762E+04   -0.27803E-03   -0.92642E-04  2187   0.635E-02    0.341E-01
RMM:   7    -0.107915325331E+04    0.11431E-03   -0.66554E-04  2147   0.553E-02    0.278E-01
RMM:   8    -0.107915342566E+04   -0.17235E-03   -0.58041E-04  2075   0.504E-02    0.365E-01
RMM:   9    -0.107915328215E+04    0.14351E-03   -0.45450E-04  2081   0.464E-02    0.239E-01
RMM:  10    -0.107915314714E+04    0.13501E-03   -0.20561E-04  1972   0.335E-02    0.901E-02
RMM:  11    -0.107915316437E+04   -0.17229E-04   -0.87807E-05  1821   0.204E-02    0.762E-02
RMM:  12    -0.107915315931E+04    0.50522E-05   -0.34157E-05  1623   0.131E-02    0.367E-02
RMM:  13    -0.107915317024E+04   -0.10930E-04   -0.12469E-05  1430   0.858E-03    0.339E-02
RMM:  14    -0.107915317684E+04   -0.65932E-05   -0.76078E-06  1349   0.645E-03    0.276E-02
RMM:  15    -0.107915318568E+04   -0.88406E-05   -0.31707E-06  1291   0.468E-03    0.116E-02
RMM:  16    -0.107915319757E+04   -0.11891E-04   -0.19624E-06  1242   0.337E-03    0.145E-02
RMM:  17    -0.107915320565E+04   -0.80793E-05   -0.17594E-06  1218   0.332E-03    0.112E-02
RMM:  18    -0.107915321568E+04   -0.10033E-04   -0.93693E-07  1118   0.243E-03    0.664E-03
RMM:  19    -0.107915322519E+04   -0.95120E-05   -0.67766E-07  1095   0.198E-03    0.702E-03
RMM:  20    -0.107915323206E+04   -0.68636E-05   -0.52816E-07  1065   0.171E-03    0.473E-03
RMM:  21    -0.107915324264E+04   -0.10583E-04   -0.38736E-07  1035   0.125E-03    0.228E-03
RMM:  22    -0.107915325216E+04   -0.95154E-05   -0.31885E-07   994   0.985E-04    0.210E-03
RMM:  23    -0.107915326024E+04   -0.80838E-05   -0.30128E-07   951   0.941E-04    0.255E-03
RMM:  24    -0.107915326486E+04   -0.46187E-05   -0.22838E-07   868   0.834E-04    0.141E-03
RMM:  25    -0.107915327289E+04   -0.80299E-05   -0.28685E-07   908   0.727E-04    0.117E-03
RMM:  26    -0.107915327806E+04   -0.51760E-05   -0.23519E-07   893   0.783E-04    0.126E-03
RMM:  27    -0.107915328284E+04   -0.47711E-05   -0.24439E-07   854   0.664E-04    0.859E-04
RMM:  28    -0.107915328705E+04   -0.42192E-05   -0.21907E-07   875   0.701E-04    0.587E-04
RMM:  29    -0.107915329034E+04   -0.32827E-05   -0.21336E-07   854   0.610E-04    0.389E-04
RMM:  30    -0.107915329410E+04   -0.37588E-05   -0.22888E-07   887   0.650E-04    0.315E-04
RMM:  31    -0.107915329692E+04   -0.28288E-05   -0.23519E-07   885   0.638E-04    0.269E-04
RMM:  32    -0.107915329885E+04   -0.19227E-05   -0.21232E-07   844   0.632E-04    0.212E-04
RMM:  33    -0.107915329985E+04   -0.10013E-05   -0.17046E-07   801   0.575E-04    0.166E-04
RMM:  34    -0.107915330045E+04   -0.59840E-06   -0.13196E-07   763   0.527E-04
  14 F= -.10867396E+04 E0= -.10867346E+04  d E =-.270738E-01  mag=    27.9451
 curvature:  -0.70 expect dE=-0.447E-01 dE for cont linesearch -0.755E-08
 trial: gam= 0.74233 g(F)=  0.625E-01 g(S)=  0.166E-02 ort =-0.453E-04 (trialstep = 0.403E+00)
 search vector abs. value=  0.168E+00
 bond charge predicted
       N       E                     dE             d eps       ncg     rms          rms(c)
DAV:   1    -0.107915265364E+04    0.64621E-03   -0.75602E+00  1848   0.608E+00    0.915E-01
RMM:   2    -0.107917053374E+04   -0.17880E-01   -0.15457E-01  2216   0.901E-01    0.814E-01
RMM:   3    -0.107917975955E+04   -0.92258E-02   -0.29625E-02  2232   0.399E-01    0.156E+00
RMM:   4    -0.107917286973E+04    0.68898E-02   -0.90056E-03  2292   0.216E-01    0.654E-01
RMM:   5    -0.107917238948E+04    0.48026E-03   -0.26032E-03  2207   0.106E-01    0.463E-01
RMM:   6    -0.107917295375E+04   -0.56427E-03   -0.15853E-03  2195   0.773E-02    0.590E-01
RMM:   7    -0.107917215809E+04    0.79565E-03   -0.11654E-03  2146   0.732E-02    0.255E-01
RMM:   8    -0.107917273715E+04   -0.57905E-03   -0.11263E-03  2108   0.716E-02    0.409E-01
RMM:   9    -0.107917227444E+04    0.46271E-03   -0.63816E-04  2133   0.573E-02    0.177E-01
RMM:  10    -0.107917236511E+04   -0.90671E-04   -0.25010E-04  1987   0.338E-02    0.219E-01
RMM:  11    -0.107917230450E+04    0.60609E-04   -0.13374E-04  1848   0.248E-02    0.107E-01
RMM:  12    -0.107917231572E+04   -0.11220E-04   -0.64158E-05  1746   0.182E-02    0.786E-02
RMM:  13    -0.107917231792E+04   -0.21941E-05   -0.29698E-05  1539   0.123E-02    0.535E-02
RMM:  14    -0.107917232057E+04   -0.26564E-05   -0.11347E-05  1395   0.813E-03    0.251E-02
RMM:  15    -0.107917232820E+04   -0.76249E-05   -0.50428E-06  1328   0.544E-03    0.226E-02
RMM:  16    -0.107917233333E+04   -0.51329E-05   -0.44461E-06  1305   0.502E-03    0.225E-02
RMM:  17    -0.107917233965E+04   -0.63198E-05   -0.24591E-06  1249   0.404E-03    0.118E-02
RMM:  18    -0.107917234666E+04   -0.70153E-05   -0.14881E-06  1170   0.292E-03    0.150E-02
RMM:  19    -0.107917234965E+04   -0.29896E-05   -0.10504E-06  1134   0.272E-03    0.668E-03
RMM:  20    -0.107917235432E+04   -0.46641E-05   -0.54434E-07  1087   0.170E-03    0.479E-03
RMM:  21    -0.107917235810E+04   -0.37794E-05   -0.37384E-07  1043   0.150E-03    0.410E-03
RMM:  22    -0.107917236114E+04   -0.30392E-05   -0.26089E-07   992   0.115E-03    0.285E-03
RMM:  23    -0.107917236580E+04   -0.46629E-05   -0.19336E-07   980   0.880E-04    0.160E-03
RMM:  24    -0.107917236860E+04   -0.28032E-05   -0.13790E-07   839   0.702E-04    0.176E-03
RMM:  25    -0.107917237040E+04   -0.17987E-05   -0.10508E-07   788   0.631E-04    0.135E-03
RMM:  26    -0.107917237265E+04   -0.22468E-05   -0.93652E-08   796   0.540E-04    0.832E-04
RMM:  27    -0.107917237496E+04   -0.23117E-05   -0.94133E-08   821   0.512E-04    0.524E-04
RMM:  28    -0.107917237714E+04   -0.21823E-05   -0.96135E-08   816   0.484E-04    0.363E-04
RMM:  29    -0.107917237864E+04   -0.14971E-05   -0.84429E-08   768   0.466E-04    0.264E-04
RMM:  30    -0.107917237988E+04   -0.12370E-05   -0.81100E-08   753   0.443E-04    0.217E-04
RMM:  31    -0.107917238086E+04   -0.98375E-06   -0.75360E-08   766   0.443E-04
  15 F= -.10867577E+04 E0= -.10867526E+04  d E =-.180809E-01  mag=    27.9460
 trial-energy change:   -0.018081  1 .order   -0.018126   -0.025829   -0.010424
 step:   0.6842(harm=  0.6758)  dis= 0.01012  next Energy= -1086.761295 (dE=-0.217E-01)
 bond charge predicted
       N       E                     dE             d eps       ncg     rms          rms(c)
DAV:   1    -0.107916753474E+04    0.48451E-02   -0.36781E+00  1854   0.424E+00    0.639E-01
RMM:   2    -0.107917612006E+04   -0.85853E-02   -0.74921E-02  2210   0.628E-01    0.571E-01
RMM:   3    -0.107918072905E+04   -0.46090E-02   -0.14432E-02  2231   0.279E-01    0.109E+00
RMM:   4    -0.107917728661E+04    0.34424E-02   -0.44242E-03  2293   0.151E-01    0.473E-01
RMM:   5    -0.107917708065E+04    0.20596E-03   -0.12490E-03  2195   0.730E-02    0.328E-01
RMM:   6    -0.107917733131E+04   -0.25065E-03   -0.76024E-04  2189   0.540E-02    0.387E-01
RMM:   7    -0.107917697745E+04    0.35386E-03   -0.56261E-04  2135   0.512E-02    0.169E-01
RMM:   8    -0.107917723721E+04   -0.25976E-03   -0.50985E-04  2105   0.484E-02    0.269E-01
RMM:   9    -0.107917706173E+04    0.17548E-03   -0.28955E-04  2089   0.386E-02    0.139E-01
RMM:  10    -0.107917709194E+04   -0.30216E-04   -0.12295E-04  1859   0.236E-02    0.149E-01
RMM:  11    -0.107917706948E+04    0.22461E-04   -0.65212E-05  1700   0.176E-02    0.744E-02
RMM:  12    -0.107917707226E+04   -0.27756E-05   -0.29136E-05  1552   0.125E-02    0.455E-02
RMM:  13    -0.107917707799E+04   -0.57295E-05   -0.13283E-05  1396   0.842E-03    0.386E-02
RMM:  14    -0.107917707901E+04   -0.10196E-05   -0.54647E-06  1316   0.592E-03    0.165E-02
RMM:  15    -0.107917708319E+04   -0.41851E-05   -0.23333E-06  1255   0.378E-03    0.153E-02
RMM:  16    -0.107917708636E+04   -0.31629E-05   -0.21539E-06  1239   0.358E-03    0.155E-02
RMM:  17    -0.107917708997E+04   -0.36107E-05   -0.12212E-06  1172   0.293E-03    0.774E-03
RMM:  18    -0.107917709429E+04   -0.43183E-05   -0.72314E-07  1100   0.207E-03    0.970E-03
RMM:  19    -0.107917709602E+04   -0.17329E-05   -0.53122E-07  1063   0.194E-03    0.474E-03
RMM:  20    -0.107917709890E+04   -0.28807E-05   -0.28276E-07  1033   0.121E-03    0.295E-03
RMM:  21    -0.107917710128E+04   -0.23793E-05   -0.18520E-07   973   0.101E-03    0.245E-03
RMM:  22    -0.107917710293E+04   -0.16502E-05   -0.13263E-07   922   0.795E-04    0.212E-03
RMM:  23    -0.107917710544E+04   -0.25155E-05   -0.10011E-07   845   0.653E-04    0.108E-03
RMM:  24    -0.107917710699E+04   -0.15478E-05   -0.75106E-08   768   0.540E-04    0.144E-03
RMM:  25    -0.107917710802E+04   -0.10328E-05   -0.56335E-08   701   0.493E-04    0.757E-04
RMM:  26    -0.107917710938E+04   -0.13589E-05   -0.53785E-08   730   0.425E-04    0.498E-04
RMM:  27    -0.107917711067E+04   -0.12884E-05   -0.53382E-08   738   0.421E-04    0.358E-04
RMM:  28    -0.107917711190E+04   -0.12311E-05   -0.55705E-08   720   0.402E-04    0.237E-04
RMM:  29    -0.107917711274E+04   -0.84122E-06   -0.49598E-08   685   0.400E-04
  16 F= -.10867612E+04 E0= -.10867561E+04  d E =-.216073E-01  mag=    27.9466
 curvature:  -0.89 expect dE=-0.540E-01 dE for cont linesearch -0.170E-05
 trial: gam= 0.96044 g(F)=  0.606E-01 g(S)=  0.290E-03 ort =-0.568E-03 (trialstep = 0.360E+00)
 search vector abs. value=  0.215E+00
 bond charge predicted
       N       E                     dE             d eps       ncg     rms          rms(c)
DAV:   1    -0.107917383438E+04    0.32775E-02   -0.74236E+00  1848   0.609E+00    0.879E-01
RMM:   2    -0.107919119449E+04   -0.17360E-01   -0.15240E-01  2210   0.880E-01    0.740E-01
RMM:   3    -0.107920075106E+04   -0.95566E-02   -0.26171E-02  2218   0.382E-01    0.169E+00
RMM:   4    -0.107919311175E+04    0.76393E-02   -0.87061E-03  2306   0.209E-01    0.495E-01
RMM:   5    -0.107919364691E+04   -0.53515E-03   -0.21933E-03  2213   0.945E-02    0.541E-01
RMM:   6    -0.107919358055E+04    0.66358E-04   -0.13156E-03  2154   0.725E-02    0.470E-01
RMM:   7    -0.107919318235E+04    0.39820E-03   -0.86834E-04  2145   0.647E-02    0.233E-01
RMM:   8    -0.107919354042E+04   -0.35807E-03   -0.71483E-04  2070   0.598E-02    0.328E-01
RMM:   9    -0.107919341960E+04    0.12082E-03   -0.45577E-04  2011   0.462E-02    0.280E-01
RMM:  10    -0.107919329445E+04    0.12515E-03   -0.21287E-04  1976   0.321E-02    0.123E-01
RMM:  11    -0.107919332984E+04   -0.35398E-04   -0.10481E-04  1841   0.222E-02    0.111E-01
RMM:  12    -0.107919332221E+04    0.76282E-05   -0.51728E-05  1696   0.166E-02    0.506E-02
RMM:  13    -0.107919333685E+04   -0.14637E-04   -0.19815E-05  1461   0.102E-02    0.455E-02
RMM:  14    -0.107919333943E+04   -0.25800E-05   -0.99163E-06  1352   0.745E-03    0.260E-02
RMM:  15    -0.107919334598E+04   -0.65496E-05   -0.38443E-06  1298   0.483E-03    0.192E-02
RMM:  16    -0.107919335433E+04   -0.83516E-05   -0.36060E-06  1283   0.446E-03    0.195E-02
RMM:  17    -0.107919336137E+04   -0.70349E-05   -0.27140E-06  1252   0.403E-03    0.141E-02
RMM:  18    -0.107919336856E+04   -0.71938E-05   -0.13401E-06  1159   0.294E-03    0.116E-02
RMM:  19    -0.107919337329E+04   -0.47240E-05   -0.93551E-07  1123   0.238E-03    0.805E-03
RMM:  20    -0.107919337871E+04   -0.54217E-05   -0.54188E-07  1085   0.185E-03    0.372E-03
RMM:  21    -0.107919338498E+04   -0.62758E-05   -0.34569E-07  1049   0.123E-03    0.305E-03
RMM:  22    -0.107919338814E+04   -0.31616E-05   -0.27117E-07   978   0.116E-03    0.308E-03
RMM:  23    -0.107919339225E+04   -0.41057E-05   -0.19663E-07   954   0.885E-04    0.159E-03
RMM:  24    -0.107919339528E+04   -0.30327E-05   -0.14373E-07   859   0.719E-04    0.180E-03
RMM:  25    -0.107919339756E+04   -0.22781E-05   -0.11442E-07   798   0.626E-04    0.136E-03
RMM:  26    -0.107919340071E+04   -0.31462E-05   -0.11362E-07   828   0.567E-04    0.816E-04
RMM:  27    -0.107919340371E+04   -0.29998E-05   -0.11794E-07   847   0.542E-04    0.527E-04
RMM:  28    -0.107919340603E+04   -0.23194E-05   -0.10922E-07   817   0.519E-04    0.420E-04
RMM:  29    -0.107919340795E+04   -0.19223E-05   -0.10397E-07   796   0.496E-04    0.338E-04
RMM:  30    -0.107919340983E+04   -0.18858E-05   -0.10949E-07   819   0.493E-04    0.228E-04
RMM:  31    -0.107919341130E+04   -0.14661E-05   -0.10523E-07   809   0.490E-04    0.188E-04
RMM:  32    -0.107919341216E+04   -0.85965E-06   -0.87462E-08   751   0.463E-04
  17 F= -.10867766E+04 E0= -.10867716E+04  d E =-.153874E-01  mag=    27.9507
 trial-energy change:   -0.015387  1 .order   -0.015399   -0.021687   -0.009111
 step:   0.6200(harm=  0.6200)  dis= 0.01293  next Energy= -1086.779901 (dE=-0.187E-01)
 bond charge predicted
       N       E                     dE             d eps       ncg     rms          rms(c)
DAV:   1    -0.107918716092E+04    0.62504E-02   -0.38976E+00  1848   0.441E+00    0.636E-01
RMM:   2    -0.107919616155E+04   -0.90006E-02   -0.79721E-02  2206   0.636E-01    0.538E-01
RMM:   3    -0.107920121756E+04   -0.50560E-02   -0.13747E-02  2214   0.278E-01    0.121E+00
RMM:   4    -0.107919723884E+04    0.39787E-02   -0.45841E-03  2309   0.152E-01    0.369E-01
RMM:   5    -0.107919749546E+04   -0.25663E-03   -0.11496E-03  2208   0.680E-02    0.390E-01
RMM:   6    -0.107919744607E+04    0.49392E-04   -0.67837E-04  2147   0.526E-02    0.318E-01
RMM:   7    -0.107919727951E+04    0.16656E-03   -0.45930E-04  2129   0.470E-02    0.173E-01
RMM:   8    -0.107919747549E+04   -0.19598E-03   -0.38221E-04  2077   0.437E-02    0.247E-01
RMM:   9    -0.107919740319E+04    0.72296E-04   -0.23708E-04  1974   0.332E-02    0.201E-01
RMM:  10    -0.107919733954E+04    0.63655E-04   -0.10785E-04  1854   0.231E-02    0.814E-02
RMM:  11    -0.107919736253E+04   -0.22992E-04   -0.52701E-05  1701   0.160E-02    0.793E-02
RMM:  12    -0.107919735969E+04    0.28410E-05   -0.26603E-05  1507   0.121E-02    0.368E-02
RMM:  13    -0.107919736811E+04   -0.84268E-05   -0.10626E-05  1389   0.773E-03    0.318E-02
RMM:  14    -0.107919737002E+04   -0.19031E-05   -0.51670E-06  1306   0.557E-03    0.186E-02
RMM:  15    -0.107919737391E+04   -0.38933E-05   -0.20790E-06  1254   0.360E-03    0.148E-02
RMM:  16    -0.107919737860E+04   -0.46841E-05   -0.19857E-06  1224   0.336E-03    0.145E-02
RMM:  17    -0.107919738298E+04   -0.43870E-05   -0.14059E-06  1185   0.301E-03    0.983E-03
RMM:  18    -0.107919738728E+04   -0.42946E-05   -0.76017E-07  1103   0.223E-03    0.881E-03
RMM:  19    -0.107919739009E+04   -0.28175E-05   -0.54774E-07  1078   0.186E-03    0.535E-03
RMM:  20    -0.107919739354E+04   -0.34467E-05   -0.30461E-07  1036   0.135E-03    0.292E-03
RMM:  21    -0.107919739685E+04   -0.33128E-05   -0.20828E-07   987   0.100E-03    0.288E-03
RMM:  22    -0.107919739872E+04   -0.18658E-05   -0.15580E-07   930   0.891E-04    0.175E-03
RMM:  23    -0.107919740143E+04   -0.27142E-05   -0.10952E-07   829   0.638E-04    0.128E-03
RMM:  24    -0.107919740288E+04   -0.14480E-05   -0.79615E-08   776   0.583E-04    0.139E-03
RMM:  25    -0.107919740441E+04   -0.15331E-05   -0.66033E-08   732   0.494E-04    0.899E-04
RMM:  26    -0.107919740629E+04   -0.18707E-05   -0.67072E-08   785   0.468E-04    0.587E-04
RMM:  27    -0.107919740798E+04   -0.16909E-05   -0.66411E-08   761   0.437E-04    0.386E-04
RMM:  28    -0.107919740934E+04   -0.13607E-05   -0.62217E-08   753   0.431E-04    0.309E-04
RMM:  29    -0.107919741056E+04   -0.12277E-05   -0.63498E-08   729   0.417E-04    0.239E-04
RMM:  30    -0.107919741167E+04   -0.11044E-05   -0.65409E-08   739   0.426E-04    0.152E-04
RMM:  31    -0.107919741246E+04   -0.79029E-06   -0.64055E-08   746   0.416E-04
  18 F= -.10867799E+04 E0= -.10867750E+04  d E =-.186670E-01  mag=    27.9538
 curvature:  -1.11 expect dE=-0.551E-01 dE for cont linesearch -0.112E-07
 trial: gam= 0.80711 g(F)=  0.488E-01 g(S)=  0.102E-02 ort =-0.467E-04 (trialstep = 0.412E+00)
 search vector abs. value=  0.190E+00
 bond charge predicted
       N       E                     dE             d eps       ncg     rms          rms(c)
DAV:   1    -0.107918667422E+04    0.10737E-01   -0.82272E+00  1848   0.650E+00    0.880E-01
RMM:   2    -0.107920578639E+04   -0.19112E-01   -0.17644E-01  2224   0.935E-01    0.692E-01
RMM:   3    -0.107921527824E+04   -0.94918E-02   -0.26254E-02  2191   0.393E-01    0.168E+00
RMM:   4    -0.107920807867E+04    0.71996E-02   -0.94658E-03  2330   0.214E-01    0.618E-01
RMM:   5    -0.107920816150E+04   -0.82830E-04   -0.24801E-03  2164   0.103E-01    0.510E-01
RMM:   6    -0.107920810482E+04    0.56677E-04   -0.13508E-03  2114   0.764E-02    0.399E-01
RMM:   7    -0.107920794439E+04    0.16043E-03   -0.11090E-03  2144   0.721E-02    0.292E-01
RMM:   8    -0.107920832399E+04   -0.37960E-03   -0.88979E-04  2090   0.642E-02    0.417E-01
RMM:   9    -0.107920798292E+04    0.34107E-03   -0.52210E-04  2013   0.496E-02    0.253E-01
RMM:  10    -0.107920793901E+04    0.43911E-04   -0.25266E-04  1979   0.343E-02    0.137E-01
RMM:  11    -0.107920791355E+04    0.25466E-04   -0.10547E-04  1838   0.235E-02    0.762E-02
RMM:  12    -0.107920793218E+04   -0.18635E-04   -0.45297E-05  1672   0.154E-02    0.678E-02
RMM:  13    -0.107920792692E+04    0.52622E-05   -0.23534E-05  1464   0.112E-02    0.359E-02
RMM:  14    -0.107920793179E+04   -0.48760E-05   -0.79880E-06  1375   0.668E-03    0.277E-02
RMM:  15    -0.107920793311E+04   -0.13175E-05   -0.51799E-06  1309   0.537E-03    0.232E-02
RMM:  16    -0.107920793484E+04   -0.17235E-05   -0.28740E-06  1271   0.421E-03    0.143E-02
RMM:  17    -0.107920793876E+04   -0.39270E-05   -0.22354E-06  1232   0.365E-03    0.154E-02
RMM:  18    -0.107920794041E+04   -0.16501E-05   -0.15155E-06  1180   0.307E-03    0.124E-02
RMM:  19    -0.107920794255E+04   -0.21349E-05   -0.79036E-07  1113   0.234E-03    0.495E-03
RMM:  20    -0.107920794459E+04   -0.20378E-05   -0.46274E-07  1085   0.164E-03    0.586E-03
RMM:  21    -0.107920794572E+04   -0.11361E-05   -0.33651E-07  1037   0.146E-03    0.359E-03
RMM:  22    -0.107920794692E+04   -0.11977E-05   -0.17030E-07   982   0.965E-04    0.223E-03
RMM:  23    -0.107920794769E+04   -0.77240E-06   -0.11548E-07   925   0.766E-04
  19 F= -.10867933E+04 E0= -.10867888E+04  d E =-.134804E-01  mag=    27.9572
 trial-energy change:   -0.013480  1 .order   -0.013473   -0.020500   -0.006446
 step:   0.6004(harm=  0.6004)  dis= 0.01519  next Energy= -1086.794819 (dE=-0.150E-01)
 bond charge predicted
       N       E                     dE             d eps       ncg     rms          rms(c)
DAV:   1    -0.107920370007E+04    0.42469E-02   -0.17308E+00  1848   0.298E+00    0.405E-01
RMM:   2    -0.107920760916E+04   -0.39091E-02   -0.36946E-02  2218   0.428E-01    0.317E-01
RMM:   3    -0.107920967351E+04   -0.20643E-02   -0.55431E-03  2188   0.182E-01    0.768E-01
RMM:   4    -0.107920815571E+04    0.15178E-02   -0.20038E-03  2318   0.987E-02    0.295E-01
RMM:   5    -0.107920814797E+04    0.77404E-05   -0.52665E-04  2131   0.473E-02    0.224E-01
RMM:   6    -0.107920815506E+04   -0.70932E-05   -0.27385E-04  2117   0.347E-02    0.174E-01
RMM:   7    -0.107920813887E+04    0.16189E-04   -0.23192E-04  2092   0.330E-02    0.138E-01
RMM:   8    -0.107920821313E+04   -0.74260E-04   -0.18098E-04  2068   0.292E-02    0.177E-01
RMM:   9    -0.107920815821E+04    0.54923E-04   -0.10394E-04  1819   0.224E-02    0.117E-01
RMM:  10    -0.107920815039E+04    0.78180E-05   -0.51104E-05  1684   0.156E-02    0.613E-02
RMM:  11    -0.107920814627E+04    0.41188E-05   -0.21441E-05  1459   0.108E-02    0.360E-02
RMM:  12    -0.107920815114E+04   -0.48693E-05   -0.99417E-06  1374   0.754E-03    0.319E-02
RMM:  13    -0.107920815026E+04    0.88583E-06   -0.49951E-06  1308   0.557E-03
  20 F= -.10867948E+04 E0= -.10867904E+04  d E =-.149614E-01  mag=    27.9590
 curvature:  -1.14 expect dE=-0.453E-01 dE for cont linesearch -0.350E-07
 trial: gam= 0.79705 g(F)=  0.387E-01 g(S)=  0.890E-03 ort =-0.762E-04 (trialstep = 0.449E+00)
 search vector abs. value=  0.160E+00
 bond charge predicted
       N       E                     dE             d eps       ncg     rms          rms(c)
DAV:   1    -0.107919732664E+04    0.10824E-01   -0.82545E+00  1848   0.665E+00    0.784E-01
RMM:   2    -0.107921568163E+04   -0.18355E-01   -0.17711E-01  2202   0.927E-01    0.630E-01
RMM:   3    -0.107922207449E+04   -0.63929E-02   -0.23618E-02  2165   0.384E-01    0.131E+00
RMM:   4    -0.107921786655E+04    0.42079E-02   -0.81719E-03  2346   0.197E-01    0.588E-01
RMM:   5    -0.107921774794E+04    0.11861E-03   -0.20501E-03  2139   0.955E-02    0.466E-01
RMM:   6    -0.107921765241E+04    0.95528E-04   -0.11058E-03  2139   0.700E-02    0.358E-01
RMM:   7    -0.107921762982E+04    0.22591E-04   -0.98195E-04  2118   0.686E-02    0.303E-01
RMM:   8    -0.107921771216E+04   -0.82340E-04   -0.88052E-04  2095   0.664E-02    0.292E-01
RMM:   9    -0.107921776758E+04   -0.55420E-04   -0.60841E-04  2093   0.556E-02    0.324E-01
RMM:  10    -0.107921757864E+04    0.18894E-03   -0.26352E-04  1964   0.357E-02    0.156E-01
RMM:  11    -0.107921755767E+04    0.20966E-04   -0.13117E-04  1864   0.244E-02    0.796E-02
RMM:  12    -0.107921756362E+04   -0.59521E-05   -0.41663E-05  1669   0.152E-02    0.588E-02
RMM:  13    -0.107921756597E+04   -0.23416E-05   -0.21068E-05  1459   0.106E-02    0.385E-02
RMM:  14    -0.107921757059E+04   -0.46226E-05   -0.81196E-06  1367   0.701E-03    0.231E-02
RMM:  15    -0.107921757527E+04   -0.46844E-05   -0.39778E-06  1301   0.484E-03    0.202E-02
RMM:  16    -0.107921757894E+04   -0.36710E-05   -0.29641E-06  1278   0.422E-03    0.161E-02
RMM:  17    -0.107921758507E+04   -0.61249E-05   -0.20449E-06  1236   0.358E-03    0.116E-02
RMM:  18    -0.107921758895E+04   -0.38805E-05   -0.13783E-06  1178   0.302E-03    0.120E-02
RMM:  19    -0.107921759212E+04   -0.31684E-05   -0.91237E-07  1122   0.241E-03    0.706E-03
RMM:  20    -0.107921759587E+04   -0.37509E-05   -0.53651E-07  1081   0.187E-03    0.449E-03
RMM:  21    -0.107921759893E+04   -0.30639E-05   -0.37062E-07  1052   0.141E-03    0.498E-03
RMM:  22    -0.107921760117E+04   -0.22354E-05   -0.24382E-07   988   0.116E-03    0.220E-03
RMM:  23    -0.107921760330E+04   -0.21341E-05   -0.14841E-07   941   0.794E-04    0.205E-03
RMM:  24    -0.107921760499E+04   -0.16881E-05   -0.11305E-07   832   0.720E-04    0.161E-03
RMM:  25    -0.107921760652E+04   -0.15285E-05   -0.85502E-08   775   0.576E-04    0.102E-03
RMM:  26    -0.107921760837E+04   -0.18511E-05   -0.82949E-08   813   0.518E-04    0.717E-04
RMM:  27    -0.107921760969E+04   -0.13178E-05   -0.71971E-08   780   0.468E-04    0.411E-04
RMM:  28    -0.107921761075E+04   -0.10633E-05   -0.64868E-08   728   0.424E-04    0.346E-04
RMM:  29    -0.107921761161E+04   -0.85606E-06   -0.62219E-08   732   0.419E-04
  21 F= -.10868069E+04 E0= -.10868026E+04  d E =-.121014E-01  mag=    27.9612
 trial-energy change:   -0.012101  1 .order   -0.012064   -0.017747   -0.006380
 step:   0.6941(harm=  0.7016)  dis= 0.01461  next Energy= -1086.808675 (dE=-0.138E-01)
 bond charge predicted
       N       E                     dE             d eps       ncg     rms          rms(c)
DAV:   1    -0.107921241912E+04    0.51916E-02   -0.24485E+00  1848   0.362E+00    0.427E-01
RMM:   2    -0.107921775012E+04   -0.53310E-02   -0.52411E-02  2208   0.504E-01    0.335E-01
RMM:   3    -0.107921961773E+04   -0.18676E-02   -0.68755E-03  2171   0.207E-01    0.684E-01
RMM:   4    -0.107921843352E+04    0.11842E-02   -0.23305E-03  2336   0.106E-01    0.314E-01
RMM:   5    -0.107921841148E+04    0.22042E-04   -0.59686E-04  2130   0.514E-02    0.254E-01
RMM:   6    -0.107921838679E+04    0.24696E-04   -0.31961E-04  2133   0.377E-02    0.192E-01
RMM:   7    -0.107921839543E+04   -0.86477E-05   -0.29064E-04  2093   0.373E-02    0.167E-01
RMM:   8    -0.107921841498E+04   -0.19545E-04   -0.25509E-04  2078   0.359E-02    0.143E-01
RMM:   9    -0.107921840163E+04    0.13353E-04   -0.14647E-04  2038   0.282E-02    0.939E-02
RMM:  10    -0.107921838486E+04    0.16768E-04   -0.57010E-05  1710   0.171E-02    0.612E-02
RMM:  11    -0.107921839717E+04   -0.12313E-04   -0.27152E-05  1500   0.109E-02    0.776E-02
RMM:  12    -0.107921838771E+04    0.94561E-05   -0.13925E-05  1401   0.894E-03    0.321E-02
RMM:  13    -0.107921838961E+04   -0.18959E-05   -0.62520E-06  1326   0.592E-03    0.206E-02
RMM:  14    -0.107921839137E+04   -0.17618E-05   -0.23406E-06  1259   0.389E-03    0.123E-02
RMM:  15    -0.107921839295E+04   -0.15810E-05   -0.11315E-06  1162   0.276E-03    0.106E-02
RMM:  16    -0.107921839431E+04   -0.13545E-05   -0.87438E-07  1123   0.243E-03    0.857E-03
RMM:  17    -0.107921839640E+04   -0.20898E-05   -0.59965E-07  1079   0.203E-03    0.589E-03
[...]
RMM:  21    -0.107931386199E+04   -0.23104E-05   -0.17288E-07   947   0.914E-04    0.325E-03
RMM:  22    -0.107931386378E+04   -0.17909E-05   -0.12184E-07   883   0.810E-04    0.197E-03
RMM:  23    -0.107931386619E+04   -0.24156E-05   -0.95622E-08   808   0.621E-04    0.194E-03
RMM:  24    -0.107931386772E+04   -0.15240E-05   -0.79653E-08   773   0.630E-04    0.163E-03
RMM:  25    -0.107931386908E+04   -0.13660E-05   -0.58133E-08   701   0.504E-04    0.106E-03
RMM:  26    -0.107931387027E+04   -0.11838E-05   -0.48089E-08   717   0.453E-04    0.856E-04
RMM:  27    -0.107931387177E+04   -0.15062E-05   -0.51024E-08   755   0.415E-04    0.526E-04
RMM:  28    -0.107931387346E+04   -0.16885E-05   -0.55534E-08   741   0.417E-04    0.418E-04
RMM:  29    -0.107931387476E+04   -0.12972E-05   -0.55979E-08   728   0.405E-04    0.373E-04
RMM:  30    -0.107931387568E+04   -0.91846E-06   -0.47591E-08   682   0.399E-04
  67 F= -.10869417E+04 E0= -.10869361E+04  d E =-.449951E-02  mag=    27.9474
 curvature:  -4.58 expect dE=-0.701E-01 dE for cont linesearch -0.438E-05
 trial: gam= 1.12327 g(F)=  0.152E-01 g(S)=  0.103E-03 ort =-0.452E-03 (trialstep = 0.336E+00)
 search vector abs. value=  0.284E+00
 bond charge predicted
       N       E                     dE             d eps       ncg     rms          rms(c)
DAV:   1    -0.107930092877E+04    0.12946E-01   -0.64371E+00  1848   0.585E+00    0.675E-01
RMM:   2    -0.107931587896E+04   -0.14950E-01   -0.14497E-01  2126   0.841E-01    0.990E-01
RMM:   3    -0.107932365288E+04   -0.77739E-02   -0.23268E-02  2035   0.406E-01    0.187E+00
RMM:   4    -0.107931706647E+04    0.65864E-02   -0.95542E-03  2333   0.220E-01    0.810E-01
RMM:   5    -0.107931559873E+04    0.14677E-02   -0.23703E-03  2081   0.113E-01    0.279E-01
RMM:   6    -0.107931600052E+04   -0.40178E-03   -0.10565E-03  2173   0.656E-02    0.352E-01
RMM:   7    -0.107931578025E+04    0.22026E-03   -0.63510E-04  2119   0.537E-02    0.211E-01
RMM:   8    -0.107931593659E+04   -0.15633E-03   -0.52039E-04  2093   0.497E-02    0.230E-01
RMM:   9    -0.107931603615E+04   -0.99563E-04   -0.41586E-04  2056   0.441E-02    0.294E-01
RMM:  10    -0.107931589552E+04    0.14063E-03   -0.23587E-04  1999   0.334E-02    0.159E-01
RMM:  11    -0.107931589008E+04    0.54413E-05   -0.11456E-04  1833   0.236E-02    0.108E-01
RMM:  12    -0.107931588954E+04    0.53207E-06   -0.41992E-05  1658   0.152E-02    0.492E-02
RMM:  13    -0.107931589990E+04   -0.10360E-04   -0.16798E-05  1449   0.959E-03    0.377E-02
RMM:  14    -0.107931590923E+04   -0.93305E-05   -0.79274E-06  1352   0.674E-03    0.309E-02
RMM:  15    -0.107931591727E+04   -0.80339E-05   -0.49899E-06  1331   0.565E-03    0.215E-02
RMM:  16    -0.107931592737E+04   -0.10103E-04   -0.30293E-06  1280   0.428E-03    0.171E-02
RMM:  17    -0.107931593573E+04   -0.83642E-05   -0.30298E-06  1281   0.423E-03    0.195E-02
RMM:  18    -0.107931594424E+04   -0.85027E-05   -0.17821E-06  1229   0.334E-03    0.116E-02
RMM:  19    -0.107931595232E+04   -0.80798E-05   -0.12515E-06  1129   0.269E-03    0.788E-03
RMM:  20    -0.107931595877E+04   -0.64530E-05   -0.67091E-07  1100   0.207E-03    0.673E-03
RMM:  21    -0.107931596408E+04   -0.53078E-05   -0.42621E-07  1056   0.154E-03    0.521E-03
RMM:  22    -0.107931596842E+04   -0.43385E-05   -0.27266E-07   997   0.117E-03    0.332E-03
RMM:  23    -0.107931597355E+04   -0.51289E-05   -0.22261E-07   953   0.958E-04    0.370E-03
RMM:  24    -0.107931597748E+04   -0.39397E-05   -0.19371E-07   918   0.939E-04    0.246E-03
RMM:  25    -0.107931598126E+04   -0.37794E-05   -0.14843E-07   848   0.730E-04    0.168E-03
RMM:  26    -0.107931598428E+04   -0.30115E-05   -0.11762E-07   815   0.627E-04    0.136E-03
RMM:  27    -0.107931598798E+04   -0.37030E-05   -0.12185E-07   842   0.545E-04    0.836E-04
RMM:  28    -0.107931599202E+04   -0.40418E-05   -0.13570E-07   867   0.551E-04    0.628E-04
RMM:  29    -0.107931599517E+04   -0.31517E-05   -0.13679E-07   841   0.539E-04    0.485E-04
RMM:  30    -0.107931599837E+04   -0.31947E-05   -0.15611E-07   857   0.547E-04    0.357E-04
RMM:  31    -0.107931600066E+04   -0.22959E-05   -0.14876E-07   842   0.560E-04    0.375E-04
RMM:  32    -0.107931600222E+04   -0.15605E-05   -0.13210E-07   800   0.525E-04    0.261E-04
RMM:  33    -0.107931600370E+04   -0.14742E-05   -0.12859E-07   805   0.513E-04    0.228E-04
RMM:  34    -0.107931600498E+04   -0.12788E-05   -0.13518E-07   821   0.514E-04    0.138E-04
RMM:  35    -0.107931600553E+04   -0.55094E-06   -0.11007E-07   791   0.501E-04
  68 F= -.10869453E+04 E0= -.10869397E+04  d E =-.364864E-02  mag=    27.9473
 trial-energy change:   -0.003649  1 .order   -0.003673   -0.004975   -0.002372
 step:   0.6823(harm=  0.6421)  dis= 0.01289  next Energy= -1086.946529 (dE=-0.484E-02)
 bond charge predicted
       N       E                     dE             d eps       ncg     rms          rms(c)
DAV:   1    -0.107929949134E+04    0.16514E-01   -0.68350E+00  1848   0.603E+00    0.696E-01
RMM:   2    -0.107931537738E+04   -0.15886E-01   -0.15394E-01  2121   0.867E-01    0.102E+00
RMM:   3    -0.107932362888E+04   -0.82515E-02   -0.24766E-02  2031   0.420E-01    0.192E+00
RMM:   4    -0.107931668542E+04    0.69435E-02   -0.10196E-02  2335   0.227E-01    0.840E-01
RMM:   5    -0.107931508518E+04    0.16002E-02   -0.25346E-03  2079   0.116E-01    0.287E-01
RMM:   6    -0.107931553024E+04   -0.44506E-03   -0.11393E-03  2170   0.680E-02    0.373E-01
RMM:   7    -0.107931526862E+04    0.26162E-03   -0.67576E-04  2124   0.554E-02    0.215E-01
RMM:   8    -0.107931549537E+04   -0.22675E-03   -0.57632E-04  2095   0.523E-02    0.280E-01
RMM:   9    -0.107931555834E+04   -0.62975E-04   -0.47562E-04  2063   0.459E-02    0.319E-01
RMM:  10    -0.107931539552E+04    0.16282E-03   -0.26622E-04  2006   0.361E-02    0.157E-01
RMM:  11    -0.107931538886E+04    0.66635E-05   -0.12575E-04  1864   0.250E-02    0.106E-01
RMM:  12    -0.107931538995E+04   -0.10952E-05   -0.44916E-05  1680   0.158E-02    0.515E-02
RMM:  13    -0.107931540026E+04   -0.10308E-04   -0.18289E-05  1457   0.998E-03    0.404E-02
RMM:  14    -0.107931540924E+04   -0.89776E-05   -0.88517E-06  1361   0.706E-03    0.324E-02
RMM:  15    -0.107931541731E+04   -0.80690E-05   -0.53458E-06  1338   0.584E-03    0.218E-02
RMM:  16    -0.107931542717E+04   -0.98646E-05   -0.31700E-06  1280   0.437E-03    0.179E-02
RMM:  17    -0.107931543548E+04   -0.83095E-05   -0.32306E-06  1290   0.437E-03    0.205E-02
RMM:  18    -0.107931544418E+04   -0.86974E-05   -0.19252E-06  1238   0.345E-03    0.124E-02
RMM:  19    -0.107931545244E+04   -0.82602E-05   -0.13787E-06  1138   0.281E-03    0.790E-03
RMM:  20    -0.107931545921E+04   -0.67682E-05   -0.72146E-07  1106   0.214E-03    0.728E-03
RMM:  21    -0.107931546416E+04   -0.49578E-05   -0.44464E-07  1057   0.160E-03    0.582E-03
RMM:  22    -0.107931546824E+04   -0.40792E-05   -0.27584E-07  1003   0.120E-03    0.375E-03
RMM:  23    -0.107931547294E+04   -0.46931E-05   -0.21979E-07   953   0.980E-04    0.392E-03
RMM:  24    -0.107931547732E+04   -0.43862E-05   -0.20068E-07   939   0.952E-04    0.253E-03
RMM:  25    -0.107931548122E+04   -0.38964E-05   -0.15279E-07   844   0.761E-04    0.180E-03
RMM:  26    -0.107931548447E+04   -0.32494E-05   -0.12342E-07   831   0.640E-04    0.144E-03
RMM:  27    -0.107931548824E+04   -0.37672E-05   -0.12421E-07   865   0.562E-04    0.863E-04
RMM:  28    -0.107931549213E+04   -0.38936E-05   -0.13293E-07   859   0.547E-04    0.638E-04
RMM:  29    -0.107931549524E+04   -0.31153E-05   -0.13200E-07   824   0.538E-04    0.506E-04
RMM:  30    -0.107931549826E+04   -0.30167E-05   -0.14534E-07   844   0.542E-04    0.445E-04
RMM:  31    -0.107931550049E+04   -0.22292E-05   -0.13703E-07   826   0.549E-04    0.363E-04
RMM:  32    -0.107931550255E+04   -0.20566E-05   -0.14181E-07   825   0.525E-04    0.244E-04
RMM:  33    -0.107931550408E+04   -0.15377E-05   -0.13154E-07   824   0.530E-04    0.234E-04
RMM:  34    -0.107931550544E+04   -0.13574E-05   -0.14194E-07   822   0.511E-04    0.141E-04
RMM:  35    -0.107931550607E+04   -0.62606E-06   -0.11524E-07   801   0.516E-04
  69 F= -.10869464E+04 E0= -.10869407E+04  d E =-.468674E-02  mag=    27.9472
 curvature:  -6.06 expect dE=-0.835E-01 dE for cont linesearch -0.167E-04
 trial: gam= 0.88409 g(F)=  0.137E-01 g(S)=  0.442E-04 ort =-0.885E-03 (trialstep = 0.405E+00)
 search vector abs. value=  0.234E+00
 bond charge predicted
       N       E                     dE             d eps       ncg     rms          rms(c)
DAV:   1    -0.107929884201E+04    0.16663E-01   -0.77536E+00  1848   0.643E+00    0.739E-01
RMM:   2    -0.107931683139E+04   -0.17989E-01   -0.17394E-01  2118   0.924E-01    0.107E+00
RMM:   3    -0.107932621517E+04   -0.93838E-02   -0.27901E-02  2036   0.445E-01    0.204E+00
RMM:   4    -0.107931836152E+04    0.78536E-02   -0.11426E-02  2339   0.241E-01    0.898E-01
RMM:   5    -0.107931658930E+04    0.17722E-02   -0.28150E-03  2094   0.122E-01    0.302E-01
RMM:   6    -0.107931704887E+04   -0.45958E-03   -0.12821E-03  2161   0.724E-02    0.371E-01
RMM:   7    -0.107931683738E+04    0.21150E-03   -0.73966E-04  2120   0.582E-02    0.242E-01
RMM:   8    -0.107931708292E+04   -0.24555E-03   -0.71203E-04  2069   0.580E-02    0.311E-01
RMM:   9    -0.107931720344E+04   -0.12052E-03   -0.59378E-04  2084   0.512E-02    0.379E-01
RMM:  10    -0.107931692483E+04    0.27861E-03   -0.32760E-04  2018   0.406E-02    0.141E-01
RMM:  11    -0.107931694801E+04   -0.23180E-04   -0.14056E-04  1917   0.268E-02    0.117E-01
RMM:  12    -0.107931694207E+04    0.59459E-05   -0.57619E-05  1700   0.173E-02    0.609E-02
RMM:  13    -0.107931694943E+04   -0.73593E-05   -0.21615E-05  1484   0.109E-02    0.378E-02
RMM:  14    -0.107931695920E+04   -0.97751E-05   -0.90228E-06  1372   0.719E-03    0.338E-02
RMM:  15    -0.107931696592E+04   -0.67207E-05   -0.60300E-06  1333   0.606E-03    0.237E-02
RMM:  16    -0.107931697415E+04   -0.82253E-05   -0.38040E-06  1300   0.480E-03    0.185E-02
RMM:  17    -0.107931698262E+04   -0.84705E-05   -0.33953E-06  1282   0.452E-03    0.197E-02
RMM:  18    -0.107931698924E+04   -0.66188E-05   -0.21689E-06  1241   0.360E-03    0.154E-02
RMM:  19    -0.107931699620E+04   -0.69590E-05   -0.13765E-06  1160   0.297E-03    0.715E-03
RMM:  20    -0.107931700301E+04   -0.68173E-05   -0.72147E-07  1102   0.206E-03    0.729E-03
RMM:  21    -0.107931700685E+04   -0.38318E-05   -0.43408E-07  1058   0.165E-03    0.607E-03
RMM:  22    -0.107931701008E+04   -0.32372E-05   -0.26997E-07  1005   0.117E-03    0.428E-03
RMM:  23    -0.107931701420E+04   -0.41140E-05   -0.21904E-07   944   0.104E-03    0.297E-03
RMM:  24    -0.107931701886E+04   -0.46599E-05   -0.20799E-07   962   0.925E-04    0.343E-03
RMM:  25    -0.107931702174E+04   -0.28838E-05   -0.15702E-07   881   0.867E-04    0.190E-03
RMM:  26    -0.107931702496E+04   -0.32213E-05   -0.12159E-07   828   0.606E-04    0.140E-03
RMM:  27    -0.107931702808E+04   -0.31193E-05   -0.10752E-07   848   0.569E-04    0.899E-04
RMM:  28    -0.107931703138E+04   -0.33018E-05   -0.11790E-07   826   0.513E-04    0.626E-04
RMM:  29    -0.107931703405E+04   -0.26690E-05   -0.11159E-07   841   0.536E-04    0.605E-04
RMM:  30    -0.107931703634E+04   -0.22883E-05   -0.11193E-07   786   0.496E-04    0.437E-04
RMM:  31    -0.107931703884E+04   -0.24979E-05   -0.12574E-07   839   0.522E-04    0.322E-04
RMM:  32    -0.107931704069E+04   -0.18490E-05   -0.12495E-07   832   0.514E-04    0.230E-04
RMM:  33    -0.107931704215E+04   -0.14627E-05   -0.11957E-07   811   0.503E-04    0.228E-04
RMM:  34    -0.107931704346E+04   -0.13070E-05   -0.13016E-07   823   0.503E-04    0.139E-04
RMM:  35    -0.107931704406E+04   -0.59784E-06   -0.10663E-07   779   0.498E-04
  70 F= -.10869499E+04 E0= -.10869442E+04  d E =-.354064E-02  mag=    27.9469
 trial-energy change:   -0.003541  1 .order   -0.003564   -0.005265   -0.001863
 step:   0.6431(harm=  0.6273)  dis= 0.01103  next Energy= -1086.950455 (dE=-0.408E-02)
 bond charge predicted
       N       E                     dE             d eps       ncg     rms          rms(c)
DAV:   1    -0.107931009725E+04    0.69462E-02   -0.26698E+00  1848   0.377E+00    0.433E-01
RMM:   2    -0.107931619856E+04   -0.61013E-02   -0.59782E-02  2118   0.542E-01    0.624E-01
RMM:   3    -0.107931951010E+04   -0.33115E-02   -0.96113E-03  2036   0.262E-01    0.122E+00
RMM:   4    -0.107931665324E+04    0.28569E-02   -0.39208E-03  2338   0.141E-01    0.510E-01
RMM:   5    -0.107931615635E+04    0.49689E-03   -0.95544E-04  2095   0.709E-02    0.177E-01
RMM:   6    -0.107931628185E+04   -0.12551E-03   -0.38494E-04  2149   0.397E-02    0.168E-01
RMM:   7    -0.107931629999E+04   -0.18136E-04   -0.25975E-04  2060   0.353E-02    0.170E-01
RMM:   8    -0.107931633107E+04   -0.31076E-04   -0.23338E-04  2063   0.339E-02    0.141E-01
RMM:   9    -0.107931637253E+04   -0.41468E-04   -0.15947E-04  2032   0.284E-02    0.184E-01
RMM:  10    -0.107931631259E+04    0.59940E-04   -0.83246E-05  1782   0.197E-02    0.836E-02
RMM:  11    -0.107931631889E+04   -0.62973E-05   -0.36207E-05  1627   0.140E-02    0.596E-02
RMM:  12    -0.107931632029E+04   -0.14008E-05   -0.15573E-05  1421   0.897E-03    0.308E-02
RMM:  13    -0.107931632439E+04   -0.41005E-05   -0.61185E-06  1345   0.627E-03    0.200E-02
RMM:  14    -0.107931632832E+04   -0.39285E-05   -0.27030E-06  1266   0.409E-03    0.177E-02
RMM:  15    -0.107931633120E+04   -0.28764E-05   -0.19630E-06  1247   0.360E-03    0.142E-02
RMM:  16    -0.107931633426E+04   -0.30581E-05   -0.11103E-06  1142   0.278E-03    0.937E-03
RMM:  17    -0.107931633823E+04   -0.39709E-05   -0.99062E-07  1118   0.247E-03    0.800E-03
RMM:  18    -0.107931634147E+04   -0.32487E-05   -0.71212E-07  1092   0.213E-03    0.726E-03
RMM:  19    -0.107931634367E+04   -0.21993E-05   -0.41407E-07  1064   0.162E-03    0.581E-03
RMM:  20    -0.107931634586E+04   -0.21862E-05   -0.25075E-07  1003   0.121E-03    0.337E-03
RMM:  21    -0.107931634763E+04   -0.17697E-05   -0.13150E-07   921   0.830E-04    0.266E-03
RMM:  22    -0.107931634913E+04   -0.15016E-05   -0.93389E-08   843   0.696E-04    0.216E-03
RMM:  23    -0.107931635089E+04   -0.17598E-05   -0.84796E-08   818   0.634E-04    0.181E-03
RMM:  24    -0.107931635263E+04   -0.17384E-05   -0.70203E-08   792   0.576E-04    0.127E-03
RMM:  25    -0.107931635380E+04   -0.11738E-05   -0.52635E-08   736   0.478E-04    0.130E-03
RMM:  26    -0.107931635452E+04   -0.71333E-06   -0.39672E-08   666   0.456E-04
  71 F= -.10869504E+04 E0= -.10869447E+04  d E =-.402502E-02  mag=    27.9468
 curvature:  -5.63 expect dE=-0.735E-01 dE for cont linesearch -0.352E-05
 trial: gam= 0.89509 g(F)=  0.130E-01 g(S)=  0.538E-04 ort =-0.383E-03 (trialstep = 0.453E+00)
 search vector abs. value=  0.200E+00
 bond charge predicted
       N       E                     dE             d eps       ncg     rms          rms(c)
DAV:   1    -0.107929778302E+04    0.18571E-01   -0.82969E+00  1848   0.665E+00    0.762E-01
RMM:   2    -0.107931769854E+04   -0.19916E-01   -0.18432E-01  2129   0.956E-01    0.123E+00
RMM:   3    -0.107932654685E+04   -0.88483E-02   -0.29580E-02  2066   0.452E-01    0.203E+00
RMM:   4    -0.107931947675E+04    0.70701E-02   -0.12028E-02  2346   0.244E-01    0.968E-01
RMM:   5    -0.107931700835E+04    0.24684E-02   -0.30567E-03  2095   0.128E-01    0.318E-01
RMM:   6    -0.107931763837E+04   -0.63002E-03   -0.15198E-03  2220   0.761E-02    0.453E-01
RMM:   7    -0.107931721002E+04    0.42835E-03   -0.78322E-04  2152   0.599E-02    0.206E-01
RMM:   8    -0.107931776969E+04   -0.55967E-03   -0.83913E-04  2102   0.622E-02    0.421E-01
RMM:   9    -0.107931757869E+04    0.19100E-03   -0.64770E-04  2119   0.536E-02    0.324E-01
RMM:  10    -0.107931743112E+04    0.14758E-03   -0.35211E-04  2021   0.419E-02    0.167E-01
RMM:  11    -0.107931746468E+04   -0.33559E-04   -0.18505E-04  1973   0.296E-02    0.147E-01
RMM:  12    -0.107931742151E+04    0.43169E-04   -0.67349E-05  1714   0.197E-02    0.584E-02
RMM:  13    -0.107931743173E+04   -0.10224E-04   -0.22616E-05  1515   0.107E-02    0.422E-02
RMM:  14    -0.107931743988E+04   -0.81530E-05   -0.10309E-05  1381   0.767E-03    0.341E-02
RMM:  15    -0.107931744762E+04   -0.77319E-05   -0.73452E-06  1362   0.654E-03    0.264E-02
RMM:  16    -0.107931745542E+04   -0.78048E-05   -0.42283E-06  1300   0.516E-03    0.173E-02
RMM:  17    -0.107931746212E+04   -0.67023E-05   -0.32493E-06  1287   0.447E-03    0.201E-02
RMM:  18    -0.107931746673E+04   -0.46048E-05   -0.18620E-06  1221   0.344E-03    0.121E-02
RMM:  19    -0.107931747277E+04   -0.60445E-05   -0.12062E-06  1129   0.269E-03    0.684E-03
RMM:  20    -0.107931747868E+04   -0.59102E-05   -0.68904E-07  1101   0.209E-03    0.796E-03
RMM:  21    -0.107931748230E+04   -0.36227E-05   -0.47058E-07  1070   0.168E-03    0.664E-03
RMM:  22    -0.107931748546E+04   -0.31552E-05   -0.26682E-07   982   0.120E-03    0.416E-03
RMM:  23    -0.107931748866E+04   -0.31990E-05   -0.18032E-07   926   0.945E-04    0.288E-03
RMM:  24    -0.107931749267E+04   -0.40124E-05   -0.17616E-07   939   0.879E-04    0.313E-03
RMM:  25    -0.107931749618E+04   -0.35128E-05   -0.14645E-07   887   0.833E-04    0.158E-03
RMM:  26    -0.107931749918E+04   -0.29975E-05   -0.10551E-07   817   0.575E-04    0.124E-03
RMM:  27    -0.107931750099E+04   -0.18059E-05   -0.74012E-08   768   0.508E-04    0.901E-04
RMM:  28    -0.107931750344E+04   -0.24507E-05   -0.77335E-08   766   0.457E-04    0.693E-04
RMM:  29    -0.107931750588E+04   -0.24456E-05   -0.80482E-08   798   0.487E-04    0.613E-04
RMM:  30    -0.107931750857E+04   -0.26879E-05   -0.95352E-08   819   0.469E-04    0.488E-04
RMM:  31    -0.107931751054E+04   -0.19728E-05   -0.83992E-08   783   0.479E-04    0.340E-04
RMM:  32    -0.107931751229E+04   -0.17465E-05   -0.92157E-08   781   0.445E-04    0.218E-04
RMM:  33    -0.107931751388E+04   -0.15885E-05   -0.93222E-08   822   0.477E-04    0.211E-04
RMM:  34    -0.107931751520E+04   -0.13180E-05   -0.10361E-07   801   0.460E-04    0.144E-04
RMM:  35    -0.107931751587E+04   -0.67359E-06   -0.83943E-08   754   0.469E-04
  72 F= -.10869544E+04 E0= -.10869485E+04  d E =-.398238E-02  mag=    27.9451
 trial-energy change:   -0.003982  1 .order   -0.003991   -0.005756   -0.002227
 step:   0.7385(harm=  0.7385)  dis= 0.01157  next Energy= -1086.955091 (dE=-0.469E-02)
 bond charge predicted
       N       E                     dE             d eps       ncg     rms          rms(c)
DAV:   1    -0.107930858291E+04    0.89323E-02   -0.33022E+00  1848   0.419E+00    0.480E-01
RMM:   2    -0.107931641884E+04   -0.78359E-02   -0.73259E-02  2129   0.602E-01    0.765E-01
RMM:   3    -0.107932009237E+04   -0.36735E-02   -0.11770E-02  2061   0.286E-01    0.132E+00
RMM:   4    -0.107931693690E+04    0.31555E-02   -0.47340E-03  2343   0.154E-01    0.582E-01
RMM:   5    -0.107931616444E+04    0.77246E-03   -0.11642E-03  2095   0.784E-02    0.186E-01
RMM:   6    -0.107931641801E+04   -0.25357E-03   -0.53046E-04  2168   0.458E-02    0.248E-01
RMM:   7    -0.107931630587E+04    0.11214E-03   -0.31267E-04  2083   0.386E-02    0.142E-01
RMM:   8    -0.107931645859E+04   -0.15273E-03   -0.28276E-04  2071   0.367E-02    0.197E-01
RMM:   9    -0.107931644884E+04    0.97519E-05   -0.20455E-04  2029   0.319E-02    0.199E-01
RMM:  10    -0.107931639568E+04    0.53156E-04   -0.11482E-04  1874   0.235E-02    0.995E-02
RMM:  11    -0.107931639459E+04    0.10932E-05   -0.46127E-05  1675   0.157E-02    0.615E-02
RMM:  12    -0.107931639487E+04   -0.28066E-06   -0.18734E-05  1439   0.100E-02    0.356E-02
RMM:  13    -0.107931639793E+04   -0.30557E-05   -0.69198E-06  1367   0.651E-03    0.206E-02
RMM:  14    -0.107931640152E+04   -0.35959E-05   -0.31681E-06  1274   0.445E-03    0.172E-02
RMM:  15    -0.107931640458E+04   -0.30534E-05   -0.24075E-06  1254   0.383E-03    0.167E-02
