Co–organic framework                  
           1
    24.114169    1.106247   -0.140648
    13.226843   19.821958   -0.111300
    -0.026405   -0.004857    6.825993
   O    C    H    Co
  48  64  16  18
Direct configuration=     1
   0.00510979  0.26146532  0.32432994
   0.97503546  0.31312703  0.95624146
   0.05528130  0.25761799  0.72766169
   0.65610635  0.11209875  0.31574778
   0.65378550  0.07444751  0.95367007
   0.60595128  0.15312225  0.71668357
   0.98140316  0.40939079  0.66067088
   0.37702302  0.57542682  0.33908875
   0.43275177  0.53357998  0.97193289
   0.37607008  0.52019229  0.74024815
   0.57480236  0.04457680  0.65157324
   0.29559075  0.00486365  0.37515285
   0.21803865  0.04623229  0.61279705
   0.26061243  0.05520555  0.01661705
   0.48147403  0.41945732  0.38489709
   0.56284304  0.34551251  0.60586044
   0.04862545  0.61276487  0.71143520
   0.06562674  0.53802147  0.94111167
   0.54777679  0.37483195  0.02524997
   0.10372659  0.62849229  0.37987208
   0.15914131  0.64233626  0.61652769
   0.37678858  0.97281394  0.70932410
   0.40639093  0.01507836  0.94557999
   0.15750910  0.58884986  0.01912499
   0.70569289  0.99035550  0.62088147
   0.78426786  0.95357814  0.38872784
   0.74127963  0.94172770  0.98326648
   0.52296348  0.57849436  0.60752058
   0.43866204  0.65135613  0.39248964
   0.94991577  0.39551947  0.29746576
   0.93714542  0.46605756  0.06096307
   0.45934762  0.62112754  0.97378880
   0.89614292  0.37860477  0.62538229
   0.84577960  0.35678463  0.39389144
   0.62456481  0.02531958  0.28936737
   0.59350477  0.98468862  0.05231684
   0.84538673  0.41211175  0.99201385
   0.00153309  0.74484081  0.68366557
   0.02865875  0.68934079  0.05007405
   0.94744909  0.74628978  0.27652278
   0.34573586  0.88494511  0.68236704
   0.34997598  0.92193271  0.04398739
   0.39998260  0.84294721  0.28090211
   0.01974629  0.59714210  0.34658784
   0.63108626  0.41494072  0.67243675
   0.57256241  0.46257047  0.04261087
   0.63185806  0.47217489  0.27441620
   0.42587372  0.95472138  0.34772070
   0.06621455  0.21018135  0.24675212
   0.11749408  0.15659184  0.36839470
   0.03550768  0.26171846  0.90208874
   0.08254374  0.20762029  0.04494474
   0.62533909  0.17577517  0.23792986
   0.59836214  0.23302493  0.36305355
   0.62698241  0.13657631  0.89214592
   0.61718589  0.18907699  0.03221089
   0.98966895  0.45512473  0.57967118
   0.01178614  0.48611883  0.69998567
   0.32689884  0.57388562  0.25762490
   0.27069544  0.59438399  0.37504335
   0.38035597  0.53455860  0.91555954
   0.32572628  0.55538891  0.05841238
   0.53901663  0.02307065  0.57204453
   0.49506509  0.01917313  0.69412409
   0.23414150  0.04910046  0.43862393
   0.18307027  0.10356760  0.29971569
   0.19913633  0.10244622  0.09769141
   0.14757796  0.15440050  0.97614562
   0.53865430  0.35716561  0.43472874
   0.56792496  0.29985503  0.29133100
   0.04705011  0.56239796  0.76850849
   0.02235185  0.53376712  0.62873523
   0.56756846  0.31183617  0.08686020
   0.59126022  0.25554182  0.96087868
   0.15600930  0.62467314  0.44212652
   0.21354427  0.59921573  0.30495007
   0.41112303  0.99517490  0.76971001
   0.45651307  0.99647507  0.62752109
   0.21118566  0.58304615  0.10431137
   0.26835929  0.56047979  0.98794676
   0.76815135  0.94946562  0.56177103
   0.82018132  0.89709945  0.70290878
   0.80356361  0.89716350  0.90376077
   0.85595690  0.84663887  0.02646110
   0.46613326  0.63984831  0.55893995
   0.43663583  0.69657900  0.70369601
   0.95327995  0.44430247  0.23603053
   0.97744895  0.47352182  0.37629639
   0.43924141  0.68376043  0.90895370
   0.41755433  0.73951726  0.03515776
   0.84695553  0.37612785  0.56700712
   0.79154690  0.39726013  0.70778281
   0.58923842  0.00423771  0.22843862
   0.54344055  0.00370950  0.37078313
   0.79338777  0.41448955  0.90807900
   0.73690759  0.43475798  0.02458522
   0.93915349  0.79400072  0.75926752
   0.88705239  0.84674545  0.63690742
   0.96864980  0.74135502  0.10277192
   0.92193176  0.79546442  0.95975924
   0.37833087  0.82085400  0.75963618
   0.40428679  0.76395692  0.63342239
   0.37880823  0.85946089  0.10543963
   0.38975610  0.80645380  0.96498853
   0.01036302  0.55202840  0.42562927
   0.98780815  0.52138640  0.30525951
   0.68024941  0.41819557  0.75609777
   0.73616052  0.39858229  0.63895186
   0.62628684  0.45924297  0.09901299
   0.68060676  0.43780161  0.95430213
   0.46111725  0.97696404  0.42645508
   0.50474983  0.98120499  0.30412901
   0.10590679  0.15730545  0.52275562
   0.60039158  0.22481766  0.52045575
   0.02095658  0.47227863  0.85474960
   0.27154470  0.60832698  0.52682220
   0.49160138  0.03386555  0.84749836
   0.15943261  0.15357311  0.82218134
   0.58939998  0.26358586  0.80341080
   0.26693870  0.54812161  0.83466659
   0.84406738  0.84628911  0.17955238
   0.42243662  0.73017419  0.19247294
   0.73688101  0.44820267  0.17763245
   0.89882987  0.84748848  0.48346634
   0.40025930  0.77308905  0.47608255
   0.97850802  0.53546504  0.15060202
   0.73638656  0.38362146  0.48753726
   0.50823946  0.96658398  0.15069846
   0.44736627  0.50528653  0.54757941
   0.99290114  0.32751545  0.52702992
   0.62251570  0.08140346  0.52134660
   0.09235012  0.65891395  0.81798237
   0.35408082  0.99929157  0.14253345
   0.29325741  0.98242129  0.80878757
   0.52476094  0.44839418  0.23090967
   0.55702816  0.41469054  0.78047458
   0.08167524  0.58797356  0.14263360
   0.64756729  0.99834572  0.85635430
   0.91404361  0.34329749  0.19445370
   0.48587070  0.54201980  0.77390378
   0.70876767  0.01477950  0.19063242
   0.92048880  0.41329524  0.86466071
   0.44316369  0.58485976  0.21546005
   0.56275675  0.48281547  0.47438305
   0.00572022  0.68187138  0.48516797
   0.37952028  0.91587852  0.47852127
Co–organic framework                  
           1
    24.172987    1.110249   -0.129200
    13.261047   19.851420   -0.101687
    -0.023175   -0.003649    6.844802
   O    C    H    Co
  48  64  16  18
Direct configuration=     2
   0.00514068  0.26121604  0.32601938
   0.97542710  0.31280714  0.95611832
   0.05474459  0.25840666  0.72247299
   0.65614880  0.11187879  0.31604304
   0.65381325  0.07442509  0.95421552
   0.60576675  0.15318894  0.71609011
   0.98139219  0.40808375  0.66194877
   0.37690404  0.57498403  0.33997403
   0.43242825  0.53350031  0.97179737
   0.37596200  0.52021025  0.74031915
   0.57389429  0.04473707  0.65013249
   0.29532341  0.00512219  0.37535840
   0.21817320  0.04611946  0.61409396
   0.26092498  0.05504018  0.01737721
   0.48163465  0.41888711  0.38501860
   0.56293609  0.34563636  0.60516730
   0.04863580  0.61267065  0.71176056
   0.06561741  0.53808869  0.94171347
   0.54783987  0.37406799  0.02491170
   0.10381833  0.62846549  0.38010496
   0.15895987  0.64233877  0.61662425
   0.37666326  0.97287957  0.70911893
   0.40659186  0.01514156  0.94473221
   0.15754995  0.58864976  0.01936010
   0.70558692  0.99041859  0.62138825
   0.78406303  0.95368669  0.38850300
   0.74108330  0.94196394  0.98422003
   0.52324814  0.57792189  0.60818513
   0.43866815  0.65148273  0.39284641
   0.95054729  0.39383808  0.30065242
   0.93722465  0.46580579  0.06144303
   0.45938900  0.62165466  0.97353139
   0.89630069  0.37868890  0.62625786
   0.84578072  0.35673839  0.39375815
   0.62456505  0.02523854  0.28916920
   0.59346086  0.98487892  0.05317571
   0.84540871  0.41215331  0.99177763
   0.00153273  0.74470856  0.68374124
   0.02894525  0.68911882  0.04993385
   0.94745284  0.74638863  0.27625516
   0.34576234  0.88511966  0.68210275
   0.34998642  0.92165549  0.04290930
   0.40010324  0.84301559  0.28146534
   0.01968215  0.59711608  0.34665693
   0.63115674  0.41498801  0.67227389
   0.57310054  0.46246775  0.04149190
   0.63186732  0.47215338  0.27502575
   0.42629475  0.95442323  0.34821839
   0.06576273  0.21075961  0.24967914
   0.11772794  0.15627535  0.36803237
   0.03463619  0.26233836  0.90315014
   0.08271924  0.20765798  0.04326257
   0.62529219  0.17581525  0.23778620
   0.59836986  0.23312919  0.36324116
   0.62701837  0.13637453  0.89269338
   0.61700932  0.18925995  0.03172563
   0.98970848  0.45478059  0.57820406
   0.01191042  0.48604339  0.70016890
   0.32709193  0.57392273  0.25714070
   0.27065506  0.59437050  0.37519799
   0.38040350  0.53460726  0.91576233
   0.32572660  0.55550561  0.05856524
   0.53921838  0.02334360  0.57316571
   0.49511835  0.01913609  0.69358669
   0.23408556  0.04915668  0.43833283
   0.18300919  0.10355799  0.30054899
   0.19916493  0.10224460  0.09712634
   0.14728854  0.15452558  0.97596849
   0.53826579  0.35706297  0.43591733
   0.56788480  0.29994599  0.29127028
   0.04702615  0.56251382  0.76810333
   0.02236508  0.53372380  0.62941736
   0.56754581  0.31204514  0.08648965
   0.59118083  0.25555382  0.96130330
   0.15594803  0.62464079  0.44194526
   0.21355409  0.59929952  0.30519857
   0.41119117  0.99512311  0.77002422
   0.45662632  0.99654461  0.62747374
   0.21139160  0.58292875  0.10330372
   0.26818296  0.56054307  0.98816515
   0.76817583  0.94942733  0.56214207
   0.82013844  0.89717065  0.70252713
   0.80330462  0.89738996  0.90413994
   0.85592779  0.84671037  0.02625322
   0.46599395  0.64001474  0.55841907
   0.43667632  0.69664857  0.70413929
   0.95358561  0.44456053  0.23725974
   0.97739090  0.47368582  0.37593812
   0.43935040  0.68346050  0.90908694
   0.41755725  0.73957844  0.03488731
   0.84702922  0.37612175  0.56711663
   0.79155521  0.39723776  0.70776643
   0.58936953  0.00418479  0.22779382
   0.54346362  0.00364916  0.37077060
   0.79348303  0.41441844  0.90782667
   0.73692600  0.43477943  0.02443755
   0.93927811  0.79391168  0.75898446
   0.88695890  0.84686565  0.63683270
   0.96837203  0.74154056  0.10351316
   0.92187444  0.79547611  0.95985140
   0.37851429  0.82059380  0.75997214
   0.40422145  0.76406005  0.63377934
   0.37884236  0.85924740  0.10494038
   0.38972045  0.80645949  0.96500119
   0.01053170  0.55205991  0.42547992
   0.98779809  0.52123008  0.30540169
   0.68025092  0.41822325  0.75655164
   0.73610431  0.39866105  0.63896894
   0.62623704  0.45921022  0.09840608
   0.68057072  0.43790412  0.95443358
   0.46104084  0.97694971  0.42644171
   0.50484010  0.98122483  0.30475655
   0.10591935  0.15730600  0.52276011
   0.60046785  0.22472439  0.52067171
   0.02097480  0.47222938  0.85481155
   0.27148778  0.60832948  0.52707872
   0.49160268  0.03385371  0.84745118
   0.15945279  0.15354545  0.82191780
   0.58933312  0.26360014  0.80338188
   0.26698258  0.54808395  0.83474369
   0.84399510  0.84634255  0.17978962
   0.42242238  0.73026778  0.19249311
   0.73701079  0.44820545  0.17760485
   0.89882493  0.84749276  0.48349151
   0.40020971  0.77311177  0.47597733
   0.97850527  0.53544115  0.15049354
   0.73639264  0.38367786  0.48736096
   0.50826165  0.96655987  0.15054462
   0.44734841  0.50556734  0.54545928
   0.99417406  0.32899176  0.52195966
   0.62254950  0.08151269  0.52184988
   0.09228200  0.65930978  0.81709606
   0.35393665  0.99991843  0.14248190
   0.29229074  0.98248269  0.80553080
   0.52370491  0.45001648  0.23129508
   0.55707868  0.41480666  0.78074896
   0.08156784  0.58799071  0.14340688
   0.64838331  0.99743567  0.85436661
   0.91354144  0.34355104  0.19388405
   0.48586083  0.54214801  0.77535545
   0.70917455  0.01477018  0.19087804
   0.91988222  0.41392583  0.86639693
   0.44415620  0.58360194  0.21586010
   0.56228664  0.48313357  0.47298152
   0.00603428  0.68181403  0.48454906
   0.37968384  0.91520353  0.48071965
Co–organic framework                  
           1
    24.171218    1.110129   -0.129544
    13.260017   19.850533   -0.101976
    -0.023272   -0.003685    6.844236
   O    C    H    Co
  48  64  16  18
Direct configuration=     3
   0.00513975  0.26122353  0.32596868
   0.97541534  0.31281675  0.95612202
   0.05476070  0.25838295  0.72262868
   0.65614752  0.11188540  0.31603417
   0.65381242  0.07442577  0.95419915
   0.60577228  0.15318694  0.71610791
   0.98139250  0.40812302  0.66191037
   0.37690761  0.57499733  0.33994744
   0.43243796  0.53350270  0.97180142
   0.37596525  0.52020971  0.74031701
   0.57392155  0.04473225  0.65017568
   0.29533144  0.00511442  0.37535223
   0.21816916  0.04612285  0.61405504
   0.26091560  0.05504515  0.01735441
   0.48162982  0.41890424  0.38501494
   0.56293330  0.34563264  0.60518811
   0.04863549  0.61267348  0.71175080
   0.06561770  0.53808667  0.94169542
   0.54783796  0.37409094  0.02492182
   0.10381558  0.62846629  0.38009797
   0.15896532  0.64233869  0.61662134
   0.37666702  0.97287760  0.70912508
   0.40658583  0.01513966  0.94475767
   0.15754872  0.58865578  0.01935303
   0.70559010  0.99041670  0.62137305
   0.78406918  0.95368343  0.38850974
   0.74108920  0.94195684  0.98419142
   0.52323959  0.57793909  0.60816518
   0.43866797  0.65147893  0.39283572
   0.95052831  0.39388861  0.30055676
   0.93722227  0.46581335  0.06142862
   0.45938777  0.62163882  0.97353914
   0.89629596  0.37868637  0.62623160
   0.84578069  0.35673978  0.39376214
   0.62456504  0.02524097  0.28917514
   0.59346218  0.98487320  0.05314994
   0.84540805  0.41215206  0.99178472
   0.00153274  0.74471254  0.68373897
   0.02893665  0.68912548  0.04993806
   0.94745273  0.74638566  0.27626319
   0.34576154  0.88511442  0.68211069
   0.34998610  0.92166381  0.04294164
   0.40009962  0.84301354  0.28144845
   0.01968408  0.59711686  0.34665485
   0.63115463  0.41498659  0.67227879
   0.57308438  0.46247084  0.04152550
   0.63186704  0.47215403  0.27500746
   0.42628211  0.95443219  0.34820347
   0.06577631  0.21074224  0.24959132
   0.11772091  0.15628485  0.36804324
   0.03466237  0.26231973  0.90311827
   0.08271397  0.20765685  0.04331305
   0.62529359  0.17581405  0.23779051
   0.59836963  0.23312606  0.36323553
   0.62701729  0.13638060  0.89267695
   0.61701463  0.18925445  0.03174019
   0.98970728  0.45479093  0.57824807
   0.01190669  0.48604566  0.70016340
   0.32708613  0.57392161  0.25715524
   0.27065627  0.59437091  0.37519334
   0.38040207  0.53460580  0.91575625
   0.32572659  0.55550211  0.05856066
   0.53921233  0.02333540  0.57313209
   0.49511675  0.01913720  0.69360282
   0.23408724  0.04915499  0.43834156
   0.18301102  0.10355828  0.30052398
   0.19916407  0.10225066  0.09714329
   0.14729723  0.15452182  0.97597380
   0.53827746  0.35706605  0.43588164
   0.56788601  0.29994326  0.29127211
   0.04702687  0.56251034  0.76811549
   0.02236468  0.53372511  0.62939689
   0.56754649  0.31203886  0.08650077
   0.59118321  0.25555346  0.96129055
   0.15594986  0.62464176  0.44195069
   0.21355380  0.59929701  0.30519111
   0.41118913  0.99512466  0.77001480
   0.45662292  0.99654252  0.62747517
   0.21138541  0.58293228  0.10333396
   0.26818825  0.56054117  0.98815860
   0.76817509  0.94942848  0.56213094
   0.82013972  0.89716851  0.70253859
   0.80331240  0.89738316  0.90412856
   0.85592866  0.84670822  0.02625945
   0.46599813  0.64000974  0.55843470
   0.43667511  0.69664648  0.70412599
   0.95357645  0.44455278  0.23722288
   0.97739265  0.47368090  0.37594887
   0.43934713  0.68346951  0.90908294
   0.41755716  0.73957660  0.03489543
   0.84702701  0.37612193  0.56711335
   0.79155496  0.39723843  0.70776692
   0.58936559  0.00418638  0.22781317
   0.54346293  0.00365097  0.37077098
   0.79348017  0.41442058  0.90783424
   0.73692545  0.43477879  0.02444198
   0.93927437  0.79391436  0.75899296
   0.88696170  0.84686204  0.63683494
   0.96838038  0.74153498  0.10349091
   0.92187616  0.79547576  0.95984863
   0.37850878  0.82060161  0.75996206
   0.40422342  0.76405695  0.63376863
   0.37884133  0.85925382  0.10495535
   0.38972152  0.80645932  0.96500081
   0.01052664  0.55205896  0.42548441
   0.98779839  0.52123477  0.30539742
   0.68025088  0.41822242  0.75653802
   0.73610600  0.39865868  0.63896843
   0.62623853  0.45921120  0.09842429
   0.68057180  0.43790104  0.95442964
   0.46104313  0.97695014  0.42644211
   0.50483739  0.98122423  0.30473773
   0.10591897  0.15730598  0.52275998
   0.60046555  0.22472719  0.52066523
   0.02097425  0.47223086  0.85480969
   0.27148949  0.60832940  0.52707102
   0.49160264  0.03385406  0.84745260
   0.15945218  0.15354628  0.82192571
   0.58933512  0.26359971  0.80338274
   0.26698126  0.54808508  0.83474138
   0.84399728  0.84634095  0.17978250
   0.42242281  0.73026497  0.19249251
   0.73700689  0.44820537  0.17760568
   0.89882508  0.84749263  0.48349075
   0.40021119  0.77311108  0.47598049
   0.97850535  0.53544187  0.15049679
   0.73639246  0.38367616  0.48736625
   0.50826098  0.96656060  0.15054924
   0.44734895  0.50555890  0.54552291
   0.99413586  0.32894739  0.52211193
   0.62254849  0.08150941  0.52183479
   0.09228405  0.65929788  0.81712267
   0.35394099  0.99989960  0.14248346
   0.29231975  0.98248084  0.80562847
   0.52373664  0.44996774  0.23128353
   0.55707717  0.41480318  0.78074073
   0.08157107  0.58799019  0.14338367
   0.64835879  0.99746301  0.85442626
   0.91355652  0.34354342  0.19390113
   0.48586113  0.54214416  0.77531190
   0.70916234  0.01477046  0.19087069
   0.91990044  0.41390688  0.86634483
   0.44412638  0.58363974  0.21584809
   0.56230075  0.48312401  0.47302356
   0.00602485  0.68181575  0.48456765
   0.37967892  0.91522381  0.48065366
Co–organic framework                  
           1
    24.146937    1.108477   -0.134270
    13.245898   19.838371   -0.105945
    -0.024605   -0.004184    6.836471
   O    C    H    Co
  48  64  16  18
Direct configuration=     4
   0.00512704  0.26132634  0.32527298
   0.97525395  0.31294863  0.95617280
   0.05498172  0.25805770  0.72476505
   0.65613000  0.11197608  0.31591251
   0.65380100  0.07443502  0.95397459
   0.60584828  0.15315943  0.71635216
   0.98139675  0.40866186  0.66138348
   0.37695654  0.57517989  0.33958262
   0.43257118  0.53353553  0.97185695
   0.37600977  0.52020230  0.74028772
   0.57429552  0.04466612  0.65076833
   0.29544162  0.00500783  0.37526756
   0.21811378  0.04616940  0.61352111
   0.26078686  0.05511334  0.01704156
   0.48156353  0.41913931  0.38496469
   0.56289497  0.34558157  0.60547362
   0.04863122  0.61271233  0.71161679
   0.06562158  0.53805897  0.94144768
   0.54781178  0.37440587  0.02506070
   0.10377780  0.62847735  0.38000214
   0.15904005  0.64233766  0.61658146
   0.37671864  0.97285053  0.70920951
   0.40650306  0.01511359  0.94510689
   0.15753186  0.58873827  0.01925615
   0.70563379  0.99039070  0.62116435
   0.78415356  0.95363867  0.38860223
   0.74117016  0.94185947  0.98379883
   0.52312224  0.57817511  0.60789144
   0.43866550  0.65142675  0.39268890
   0.95026793  0.39458183  0.29924423
   0.93718959  0.46591715  0.06123092
   0.45937084  0.62142151  0.97364545
   0.89623104  0.37865171  0.62587127
   0.84578021  0.35675884  0.39381700
   0.62456491  0.02527438  0.28925669
   0.59348035  0.98479477  0.05279641
   0.84539900  0.41213493  0.99188201
   0.00153286  0.74476705  0.68370774
   0.02881859  0.68921700  0.04999585
   0.94745120  0.74634490  0.27637343
   0.34575067  0.88504246  0.68221962
   0.34998168  0.92177807  0.04338536
   0.40004998  0.84298536  0.28121668
   0.01971049  0.59712759  0.34662635
   0.63112560  0.41496709  0.67234591
   0.57286267  0.46251317  0.04198651
   0.63186325  0.47216291  0.27475649
   0.42610865  0.95455512  0.34799868
   0.06596266  0.21050391  0.24838623
   0.11762450  0.15641532  0.36819239
   0.03502149  0.26206419  0.90268103
   0.08264162  0.20764128  0.04400578
   0.62531291  0.17579752  0.23784965
   0.59836648  0.23308308  0.36315836
   0.62700245  0.13646379  0.89245146
   0.61708737  0.18917901  0.03193996
   0.98969085  0.45493277  0.57885194
   0.01185549  0.48607676  0.70008801
   0.32700659  0.57390631  0.25735475
   0.27067290  0.59437647  0.37512964
   0.38038252  0.53458575  0.91567282
   0.32572650  0.55545400  0.05849779
   0.53912936  0.02322291  0.57267078
   0.49509478  0.01915246  0.69382409
   0.23411028  0.04913180  0.43846141
   0.18303621  0.10356226  0.30018085
   0.19915221  0.10233376  0.09737584
   0.14741645  0.15447025  0.97604660
   0.53843749  0.35710838  0.43539195
   0.56790257  0.29990576  0.29129713
   0.04703675  0.56246257  0.76828235
   0.02235925  0.53374298  0.62911603
   0.56755585  0.31195271  0.08665344
   0.59121593  0.25554852  0.96111568
   0.15597508  0.62465509  0.44202526
   0.21354978  0.59926247  0.30508886
   0.41116107  0.99514602  0.76988545
   0.45657629  0.99651386  0.62749478
   0.21130052  0.58298066  0.10374890
   0.26826090  0.56051508  0.98806859
   0.76816502  0.94944427  0.56197817
   0.82015739  0.89713915  0.70269573
   0.80341914  0.89728980  0.90397240
   0.85594066  0.84667874  0.02634507
   0.46605553  0.63994111  0.55864915
   0.43665846  0.69661781  0.70394355
   0.95345067  0.44444643  0.23671715
   0.97741658  0.47361328  0.37609644
   0.43930217  0.68359316  0.90902798
   0.41755597  0.73955138  0.03500682
   0.84699666  0.37612445  0.56706831
   0.79155153  0.39724765  0.70777365
   0.58931155  0.00420818  0.22807871
   0.54345341  0.00367585  0.37077612
   0.79344091  0.41444989  0.90793816
   0.73691787  0.43476994  0.02450281
   0.93922301  0.79395106  0.75910953
   0.88700024  0.84681248  0.63686571
   0.96849485  0.74145851  0.10318565
   0.92189977  0.79547094  0.95981065
   0.37843319  0.82070889  0.75982371
   0.40425037  0.76401444  0.63362168
   0.37882720  0.85934181  0.10516080
   0.38973620  0.80645697  0.96499557
   0.01045717  0.55204597  0.42554604
   0.98780250  0.52129922  0.30533878
   0.68025028  0.41821102  0.75635117
   0.73612917  0.39862621  0.63896140
   0.62625901  0.45922469  0.09867411
   0.68058668  0.43785878  0.95437555
   0.46107460  0.97695605  0.42644755
   0.50480024  0.98121607  0.30447943
   0.10591380  0.15730576  0.52275814
   0.60043413  0.22476565  0.52057631
   0.02096674  0.47225116  0.85478417
   0.27151294  0.60832838  0.52696537
   0.49160210  0.03385894  0.84747202
   0.15944385  0.15355768  0.82203421
   0.58936266  0.26359382  0.80339461
   0.26696318  0.54810061  0.83470964
   0.84402707  0.84631892  0.17968481
   0.42242870  0.73022639  0.19248425
   0.73695344  0.44820422  0.17761714
   0.89882712  0.84749087  0.48348039
   0.40023162  0.77310171  0.47602379
   0.97850647  0.53545171  0.15054144
   0.73638996  0.38365291  0.48743887
   0.50825183  0.96657053  0.15061258
   0.44735628  0.50544309  0.54639595
   0.99361175  0.32833873  0.52420117
   0.62253461  0.08146440  0.52162767
   0.09231217  0.65913468  0.81748776
   0.35400052  0.99964118  0.14250495
   0.29271776  0.98245543  0.80696871
   0.52417200  0.44929894  0.23112506
   0.55705640  0.41475531  0.78062787
   0.08161534  0.58798314  0.14306523
   0.64802240  0.99783815  0.85524466
   0.91376338  0.34343887  0.19413546
   0.48586529  0.54209134  0.77471428
   0.70899477  0.01477432  0.19076984
   0.92015050  0.41364695  0.86562995
   0.44371732  0.58415829  0.21568334
   0.56249439  0.48299283  0.47360046
   0.00589546  0.68183939  0.48482264
   0.37961148  0.91550212  0.47974828
Co–organic framework                  
           1
    24.153680    1.107464   -0.128620
    13.249219   19.828824   -0.098678
    -0.023088   -0.002702    6.835108
   O    C    H    Co
  48  64  16  18
Direct configuration=     5
   0.00499301  0.26129121  0.32655110
   0.97513353  0.31306491  0.95646498
   0.05443250  0.25861259  0.72339963
   0.65612116  0.11195744  0.31594955
   0.65380649  0.07442807  0.95414775
   0.60580686  0.15315080  0.71663436
   0.98141720  0.40811573  0.66183305
   0.37699814  0.57491319  0.34012450
   0.43253974  0.53349706  0.97174579
   0.37599023  0.52022402  0.74054212
   0.57414920  0.04477469  0.65061228
   0.29538706  0.00505683  0.37527759
   0.21819478  0.04613816  0.61361033
   0.26082356  0.05508607  0.01745669
   0.48163545  0.41889313  0.38499453
   0.56296812  0.34565957  0.60522996
   0.04863032  0.61265740  0.71165057
   0.06557546  0.53812948  0.94136241
   0.54777451  0.37422238  0.02475360
   0.10381528  0.62846682  0.38010962
   0.15892511  0.64234418  0.61642513
   0.37671703  0.97293605  0.70929068
   0.40651925  0.01514836  0.94502821
   0.15756675  0.58863630  0.01931225
   0.70564445  0.99037861  0.62132286
   0.78406086  0.95367174  0.38877887
   0.74114267  0.94191843  0.98407735
   0.52312813  0.57794029  0.60827999
   0.43869792  0.65144227  0.39281283
   0.95071808  0.39397156  0.30044491
   0.93725278  0.46568699  0.06207932
   0.45946554  0.62148178  0.97351780
   0.89617344  0.37865793  0.62611335
   0.84581815  0.35676259  0.39388193
   0.62458377  0.02524249  0.28918260
   0.59348676  0.98482570  0.05275366
   0.84542689  0.41211134  0.99168858
   0.00147267  0.74473419  0.68376089
   0.02875625  0.68928278  0.05007158
   0.94745126  0.74638720  0.27644218
   0.34582095  0.88501202  0.68231901
   0.35004355  0.92162075  0.04304617
   0.40008373  0.84304833  0.28110462
   0.01965982  0.59705689  0.34676344
   0.63121241  0.41501590  0.67242206
   0.57308876  0.46246447  0.04137168
   0.63184145  0.47210871  0.27461075
   0.42621761  0.95440524  0.34812288
   0.06595536  0.21066966  0.24899280
   0.11757124  0.15639504  0.36830361
   0.03503626  0.26210798  0.90130083
   0.08252096  0.20781742  0.04395987
   0.62529979  0.17580167  0.23785617
   0.59840205  0.23308536  0.36313233
   0.62693948  0.13644684  0.89222609
   0.61701218  0.18921792  0.03192284
   0.98975047  0.45466014  0.57876002
   0.01186385  0.48591819  0.69987337
   0.32696892  0.57393643  0.25713332
   0.27067966  0.59437010  0.37513140
   0.38027871  0.53460934  0.91551550
   0.32570652  0.55552225  0.05852697
   0.53906491  0.02322064  0.57246227
   0.49509839  0.01914438  0.69380830
   0.23404316  0.04916262  0.43878318
   0.18308733  0.10349485  0.30006092
   0.19918373  0.10223679  0.09729085
   0.14742499  0.15441441  0.97580442
   0.53825280  0.35697859  0.43578047
   0.56787747  0.29995750  0.29131119
   0.04707174  0.56247564  0.76858851
   0.02235982  0.53372075  0.62923607
   0.56759152  0.31189001  0.08674442
   0.59116008  0.25558676  0.96118257
   0.15597360  0.62463677  0.44204032
   0.21356952  0.59928783  0.30504854
   0.41119177  0.99505460  0.76956512
   0.45659133  0.99653370  0.62754651
   0.21130805  0.58296973  0.10357614
   0.26827697  0.56051473  0.98802095
   0.76813178  0.94947649  0.56190832
   0.82012008  0.89717473  0.70276298
   0.80336218  0.89735990  0.90402780
   0.85588400  0.84673791  0.02629544
   0.46606696  0.63991662  0.55873182
   0.43670721  0.69660813  0.70407128
   0.95358847  0.44424267  0.23743808
   0.97738312  0.47358500  0.37611314
   0.43930699  0.68360949  0.90897195
   0.41756676  0.73955023  0.03491090
   0.84718691  0.37611893  0.56724557
   0.79155171  0.39722198  0.70767840
   0.58933712  0.00423942  0.22825640
   0.54347114  0.00365955  0.37089276
   0.79342442  0.41441828  0.90785897
   0.73695994  0.43477052  0.02437289
   0.93920101  0.79396705  0.75906899
   0.88701895  0.84680725  0.63692072
   0.96853018  0.74142190  0.10311050
   0.92189781  0.79545896  0.95969937
   0.37848590  0.82067700  0.75985023
   0.40423010  0.76404372  0.63375496
   0.37883058  0.85934127  0.10522534
   0.38973032  0.80642439  0.96502271
   0.01051842  0.55202185  0.42549504
   0.98783028  0.52134050  0.30535334
   0.68021162  0.41822216  0.75647004
   0.73613025  0.39866863  0.63904114
   0.62629031  0.45923147  0.09881486
   0.68060801  0.43790318  0.95445267
   0.46104024  0.97697624  0.42646614
   0.50484099  0.98122239  0.30455219
   0.10594673  0.15729136  0.52264158
   0.60047805  0.22471394  0.52059692
   0.02098194  0.47221619  0.85477563
   0.27148010  0.60831494  0.52701750
   0.49160142  0.03383605  0.84732949
   0.15944110  0.15354259  0.82200797
   0.58931874  0.26359659  0.80355022
   0.26699136  0.54808294  0.83484378
   0.84399301  0.84635235  0.17967836
   0.42241618  0.73029097  0.19236016
   0.73702642  0.44819437  0.17746778
   0.89881355  0.84749710  0.48355366
   0.40020067  0.77311370  0.47612936
   0.97851191  0.53542720  0.15060829
   0.73638829  0.38370163  0.48745456
   0.50826243  0.96657902  0.15074616
   0.44732749  0.50563877  0.54517080
   0.99433582  0.32921214  0.52094110
   0.62253665  0.08151452  0.52179450
   0.09237147  0.65926524  0.81716671
   0.35413228  0.99997347  0.14255380
   0.29218405  0.98255955  0.80548190
   0.52354456  0.45024254  0.23115022
   0.55705766  0.41486103  0.78079111
   0.08155441  0.58800833  0.14356652
   0.64825302  0.99755107  0.85448845
   0.91348334  0.34352509  0.19404565
   0.48588229  0.54218896  0.77550310
   0.70910680  0.01480260  0.19087468
   0.91983541  0.41400764  0.86653925
   0.44430158  0.58339732  0.21596387
   0.56217273  0.48322039  0.47296438
   0.00604793  0.68180679  0.48443368
   0.37973941  0.91509437  0.48062977
Co–organic framework                  
           1
    24.161460    1.106296   -0.122101
    13.253050   19.817811   -0.090294
    -0.021337   -0.000993    6.833536
   O    C    H    Co
  48  64  16  18
Direct configuration=     6
   0.00483841  0.26125056  0.32802603
   0.97499459  0.31319909  0.95680208
   0.05379888  0.25925312  0.72182399
   0.65611098  0.11193592  0.31599232
   0.65381281  0.07442003  0.95434755
   0.60575908  0.15314081  0.71696004
   0.98144105  0.40748534  0.66235245
   0.37704624  0.57460533  0.34075004
   0.43250350  0.53345267  0.97161762
   0.37596768  0.52024907  0.74083565
   0.57398041  0.04490000  0.65043222
   0.29532412  0.00511338  0.37528916
   0.21828821  0.04610210  0.61371323
   0.26086588  0.05505455  0.01793568
   0.48171851  0.41860899  0.38502920
   0.56305244  0.34574962  0.60494865
   0.04862930  0.61259399  0.71168962
   0.06552225  0.53821086  0.94126398
   0.54773163  0.37401062  0.02439952
   0.10385851  0.62845466  0.38023361
   0.15879255  0.64235171  0.61624485
   0.37671513  0.97303475  0.70938425