Co–organic framework                  
           1
    24.504992    1.220707   -0.416967
    13.322960   21.867926   -0.420833
    -0.106001   -0.065295    6.872138
   O    C    H    Co
  48  64  16  18
Direct configuration=     1
   0.02311084  0.26359768  0.29946114
   0.99939887  0.31284822  0.94321411
   0.07548609  0.26245854  0.71444282
   0.68406897  0.07674478  0.35121954
   0.66367852  0.05199148  0.98945092
   0.62789854  0.12327824  0.75684730
   0.99898732  0.40157137  0.64483898
   0.32788306  0.63077856  0.33755269
   0.36913043  0.60492495  0.96538936
   0.33864059  0.55270277  0.77843149
   0.58449056  0.03115768  0.66661101
   0.29004680  0.02209972  0.34906151
   0.21650975  0.06712742  0.58633477
   0.26222336  0.06946892  0.99771037
   0.58964631  0.34557373  0.47344512
   0.65072321  0.26602654  0.67146497
   0.03392709  0.61393156  0.72073893
   0.05125654  0.54622492  0.95044578
   0.62033333  0.30655411  0.08252416
   0.07786915  0.64169543  0.39613601
   0.13001895  0.65719613  0.64082298
   0.36893907  0.98963177  0.68965080
   0.40752660  0.01934964  0.93597559
   0.13189493  0.60322089  0.04366985
   0.71302029  0.97662234  0.65316215
   0.78678325  0.93174111  0.41648184
   0.74106483  0.92945105  0.00518714
   0.41491433  0.65283125  0.53057493
   0.35376512  0.73226242  0.33212886
   0.96991594  0.38547917  0.28351212
   0.95215328  0.45338631  0.05391920
   0.38351696  0.69214242  0.92095637
   0.92543250  0.35861278  0.60810499
   0.87393659  0.34185129  0.36451975
   0.63381102  0.01030568  0.31288290
   0.59569328  0.97978878  0.06755437
   0.87171714  0.39620667  0.96146603
   0.98058450  0.73595936  0.70511889
   0.00410325  0.68658160  0.06107944
   0.92819585  0.73714163  0.29018946
   0.31980316  0.92192679  0.65194772
   0.34030599  0.94672641  0.01300138
   0.37538149  0.87582975  0.24654817
   0.00473131  0.59797140  0.35961834
   0.67598282  0.36840643  0.66627644
   0.63482211  0.39371874  0.03813195
   0.66452494  0.44654366  0.22508417
   0.41868267  0.96820206  0.33686321
   0.08040903  0.21652954  0.22179924
   0.12655008  0.16671436  0.34137131
   0.05535896  0.26545395  0.88556107
   0.09749996  0.21433947  0.02341893
   0.66529362  0.13276031  0.27782708
   0.65986512  0.17845794  0.40748143
   0.64672144  0.10644460  0.93128630
   0.64903520  0.14915599  0.07726651
   0.99979703  0.44911847  0.57182564
   0.01454972  0.48383637  0.69733640
   0.28114293  0.62083070  0.26966164
   0.22807386  0.63677940  0.38744423
   0.33425241  0.58100879  0.94114683
   0.28527100  0.59372306  0.08193505
   0.54498063  0.01573074  0.58190025
   0.49945062  0.01531235  0.69787511
   0.23320525  0.06635878  0.41298816
   0.18781630  0.11669976  0.27472819
   0.20449327  0.11496049  0.07605963
   0.15825809  0.16395012  0.95609147
   0.62784895  0.28482182  0.50046925
   0.64014297  0.23830937  0.34720112
   0.03496860  0.56601868  0.77710290
   0.01686647  0.53367225  0.63319420
   0.62967165  0.25264363  0.14558271
   0.63208369  0.20813059  0.01585486
   0.12613384  0.64341331  0.46297741
   0.17886859  0.62770460  0.32528853
   0.40893650  0.00315493  0.75884494
   0.45658736  0.99976811  0.62354623
   0.18018837  0.60561545  0.13000737
   0.23501395  0.58686606  0.01712091
   0.76997383  0.93251861  0.58972299
   0.81543885  0.88224417  0.72826172
   0.79872795  0.88406005  0.92700695
   0.84503707  0.83514257  0.04726842
   0.37653542  0.71357277  0.50322036
   0.36386269  0.76028687  0.65629194
   0.96865979  0.43351348  0.22724832
   0.98677301  0.46588666  0.37097132
   0.37415788  0.74606534  0.85796952
   0.37157543  0.79068263  0.98765590
   0.87758465  0.35607659  0.54208198
   0.82496167  0.37144902  0.67987519
   0.59408373  0.99636466  0.24438946
   0.54647745  0.99975615  0.37988221
   0.82355233  0.39350310  0.87537274
   0.76876368  0.41208016  0.98807545
   0.92306632  0.78271784  0.78207542
   0.87672223  0.83231444  0.66190338
   0.94820921  0.73396804  0.11890963
   0.90592449  0.78491379  0.98060104
   0.33855719  0.86590646  0.72538637
   0.34405280  0.82014749  0.59584866
   0.35690496  0.89244402  0.07180352
   0.35467729  0.84962589  0.92603178
   0.00385343  0.55042310  0.43228629
   0.98909930  0.51570503  0.30672528
   0.72277454  0.37823634  0.73470687
   0.77576682  0.36245233  0.61705074
   0.66939463  0.41793236  0.06268078
   0.71857053  0.40520303  0.92266745
   0.45811441  0.98375270  0.42160254
   0.50358971  0.98422879  0.30556887
   0.11423155  0.16763808  0.49298468
   0.66929080  0.16734009  0.56156864
   0.02463892  0.47113825  0.85035924
   0.22304877  0.65888271  0.53067337
   0.49764138  0.02753160  0.85196149
   0.17079871  0.16278421  0.80469907
   0.62184559  0.21885680  0.86185845
   0.23602905  0.56997746  0.86879646
   0.83240406  0.83634134  0.19857546
   0.38172929  0.78003981  0.14172578
   0.76757149  0.42911596  0.13620169
   0.88899843  0.83127056  0.51019138
   0.33459873  0.83127382  0.44174954
   0.97903083  0.52831997  0.15363403
   0.78074434  0.34062657  0.47355641
   0.50533339  0.97206242  0.15142277
   0.34863719  0.58785867  0.56893225
   0.01786360  0.32086607  0.50710698
   0.63911371  0.05964580  0.54946227
   0.06826478  0.66373225  0.84019164
   0.35150315  0.01269734  0.12921879
   0.28431584  0.00685462  0.78579375
   0.60937236  0.37241751  0.26178820
   0.63635973  0.33530346  0.83627860
   0.06040940  0.59681945  0.15869847
   0.65172536  0.98635563  0.87422129
   0.93539184  0.33566406  0.16485148
   0.39454695  0.62628117  0.74147347
   0.71901291  0.99200380  0.21695872
   0.94322052  0.40268510  0.84578813
   0.36765561  0.66327784  0.16693281
   0.65474740  0.41126256  0.43443504
   0.98586989  0.67867413  0.49763329
   0.36418804  0.93960810  0.45380607
Co–organic framework                  
           1
    24.477371    1.212912   -0.421532
    13.302397   21.845097   -0.409376
    -0.107404   -0.060711    6.870078
   O    C    H    Co
  48  64  16  18
Direct configuration=     2
   0.02361472  0.26320430  0.30076215
   0.99922058  0.31295728  0.94309244
   0.07484719  0.26267958  0.71163469
   0.68405542  0.07692304  0.35111530
   0.66366465  0.05210051  0.98952133
   0.62789576  0.12334972  0.75672002
   0.99927517  0.40062704  0.64704587
   0.32756397  0.63048442  0.33717484
   0.36947425  0.60375980  0.96645089
   0.33833958  0.55269145  0.78045780
   0.58450171  0.03115650  0.66672188
   0.29003307  0.02209814  0.34912697
   0.21650243  0.06711642  0.58638882
   0.26211661  0.06951628  0.99773122
   0.58945850  0.34577119  0.47291190
   0.65052997  0.26615445  0.67084098
   0.03390620  0.61378036  0.72038687
   0.05127206  0.54618864  0.95126926
   0.62004350  0.30697195  0.08238308
   0.07796172  0.64162588  0.39586951
   0.13001092  0.65722999  0.64071407
   0.36892531  0.98960152  0.68939511
   0.40754349  0.01937314  0.93629703
   0.13164365  0.60313640  0.04322038
   0.71307303  0.97660331  0.65307967
   0.78680176  0.93174445  0.41643070
   0.74104442  0.92946418  0.00526650
   0.41518696  0.65341982  0.52852757
   0.35350770  0.73252760  0.33235516
   0.97061188  0.38411524  0.28537305
   0.95214209  0.45324872  0.05499247
   0.38380088  0.69275202  0.92411632
   0.92537744  0.35851445  0.60836586
   0.87376506  0.34194702  0.36439634
   0.63386858  0.01032867  0.31309761
   0.59568688  0.97977429  0.06736724
   0.87169140  0.39617521  0.96141469
   0.98066881  0.73598475  0.70545249
   0.00441648  0.68623179  0.06098527
   0.92822274  0.73710631  0.29009362
   0.31983836  0.92173817  0.65197696
   0.34028867  0.94668344  0.01287290
   0.37537702  0.87577400  0.24661278
   0.00489429  0.59789362  0.35888500
   0.67583013  0.36843178  0.66595305
   0.63470092  0.39369695  0.03777240
   0.66453002  0.44661038  0.22484193
   0.41870516  0.96820095  0.33689914
   0.08002736  0.21685721  0.22309272
   0.12672856  0.16648091  0.34130953
   0.05518102  0.26564875  0.88558052
   0.09758785  0.21441201  0.02250045
   0.66534662  0.13260029  0.27773676
   0.65981270  0.17860725  0.40735999
   0.64677329  0.10634646  0.93142954
   0.64901009  0.14918735  0.07732311
   0.99993297  0.44901760  0.57040693
   0.01452454  0.48374595  0.69725357
   0.28088902  0.62090216  0.26855547
   0.22793358  0.63678275  0.38700997
   0.33423596  0.58089389  0.94074941
   0.28536509  0.59372781  0.08235108
   0.54494747  0.01572611  0.58155200
   0.49945328  0.01527737  0.69769832
   0.23322738  0.06637016  0.41296604
   0.18770196  0.11681818  0.27495885
   0.20459964  0.11488349  0.07588210
   0.15820078  0.16395699  0.95606355
   0.62807271  0.28453405  0.50139920
   0.64015433  0.23822942  0.34718792
   0.03494434  0.56613499  0.77670900
   0.01683683  0.53369434  0.63308610
   0.62971081  0.25251961  0.14566035
   0.63209310  0.20819592  0.01604279
   0.12611070  0.64334158  0.46273717
   0.17891299  0.62778131  0.32527976
   0.40895012  0.00314152  0.75859699
   0.45651883  0.99977043  0.62360485
   0.18047107  0.60564700  0.13017768
   0.23466879  0.58700910  0.01728583
   0.76992608  0.93253995  0.58978041
   0.81545361  0.88223856  0.72821227
   0.79875688  0.88403782  0.92707042
   0.84507169  0.83513825  0.04736804
   0.37682536  0.71352431  0.50231612
   0.36402725  0.76032339  0.65659048
   0.96888904  0.43377712  0.22808709
   0.98684103  0.46583852  0.37105449
   0.37404962  0.74620855  0.85837946
   0.37138675  0.79077439  0.98738609
   0.87779765  0.35602954  0.54190691
   0.82493655  0.37145017  0.68005534
   0.59400704  0.99636348  0.24463087
   0.54654298  0.99974980  0.37982099
   0.82367756  0.39350320  0.87491610
   0.76863916  0.41211047  0.98790153
   0.92308053  0.78269700  0.78218067
   0.87671280  0.83231568  0.66193683
   0.94793177  0.73417663  0.11913803
   0.90592682  0.78493469  0.98044893
   0.33848223  0.86617489  0.72565618
   0.34413695  0.81992532  0.59562635
   0.35693370  0.89249712  0.07181136
   0.35476728  0.84958911  0.92603878
   0.00385821  0.55038543  0.43233320
   0.98907245  0.51569482  0.30688563
   0.72269124  0.37829879  0.73527219
   0.77585138  0.36252067  0.61723590
   0.66957703  0.41790589  0.06284679
   0.71860222  0.40518737  0.92241950
   0.45811097  0.98376513  0.42180311
   0.50360743  0.98425830  0.30573463
   0.11423105  0.16766502  0.49318088
   0.66928642  0.16734940  0.56179642
   0.02467670  0.47111803  0.85055171
   0.22308464  0.65880355  0.53069742
   0.49762842  0.02753896  0.85217840
   0.17081813  0.16278825  0.80454418
   0.62180658  0.21888667  0.86161610
   0.23608635  0.56990339  0.86872972
   0.83239719  0.83634060  0.19877322
   0.38176337  0.78000526  0.14200527
   0.76754515  0.42916147  0.13655563
   0.88901029  0.83129175  0.50998699
   0.33462693  0.83125001  0.44152687
   0.97901500  0.52835493  0.15339962
   0.78076207  0.34059659  0.47330945
   0.50535342  0.97205984  0.15125514
   0.34956293  0.58792334  0.56866312
   0.01639278  0.32376488  0.50296934
   0.63911395  0.05953212  0.54943748
   0.06817344  0.66361485  0.84078859
   0.35145838  0.01274594  0.12892419
   0.28433750  0.00692073  0.78618519
   0.60954955  0.37225805  0.26222085
   0.63652242  0.33552628  0.83631267
   0.06055703  0.59695997  0.15872136
   0.65171005  0.98640542  0.87414922
   0.93595416  0.33526301  0.16634854
   0.39455174  0.62474561  0.73886976
   0.71899536  0.99198915  0.21691536
   0.94320446  0.40233744  0.84500013
   0.36709347  0.66437985  0.16747534
   0.65457038  0.41098092  0.43494583
   0.98586279  0.67878364  0.49792334
   0.36421547  0.93962344  0.45390711
Co–organic framework                  
           1
    24.478148    1.213131   -0.421403
    13.302976   21.845739   -0.409698
    -0.107365   -0.060840    6.870136
   O    C    H    Co
  48  64  16  18
Direct configuration=     3
   0.02360053  0.26321538  0.30072553
   0.99922560  0.31295421  0.94309587
   0.07486518  0.26267335  0.71171371
   0.68405580  0.07691803  0.35111824
   0.66366504  0.05209744  0.98951936
   0.62789584  0.12334771  0.75672360
   0.99926707  0.40065363  0.64698374
   0.32757296  0.63049270  0.33718546
   0.36946458  0.60379261  0.96642097
   0.33834804  0.55269178  0.78040081
   0.58450139  0.03115654  0.66671876
   0.29003345  0.02209818  0.34912513
   0.21650264  0.06711673  0.58638730
   0.26211962  0.06951494  0.99773063
   0.58946378  0.34576563  0.47292691
   0.65053542  0.26615085  0.67085854
   0.03390679  0.61378461  0.72039677
   0.05127162  0.54618966  0.95124609
   0.62005166  0.30696019  0.08238707
   0.07795912  0.64162784  0.39587700
   0.13001115  0.65722904  0.64071713
   0.36892570  0.98960237  0.68940230
   0.40754301  0.01937248  0.93628799
   0.13165072  0.60313877  0.04323302
   0.71307155  0.97660385  0.65308199
   0.78680124  0.93174436  0.41643214
   0.74104500  0.92946381  0.00526426
   0.41517930  0.65340324  0.52858518
   0.35351494  0.73252014  0.33234882
   0.97059230  0.38415363  0.28532063
   0.95214240  0.45325260  0.05496228
   0.38379287  0.69273488  0.92402746
   0.92537899  0.35851722  0.60835851
   0.87376989  0.34194432  0.36439982
   0.63386696  0.01032802  0.31309157
   0.59568706  0.97977469  0.06737251
   0.87169213  0.39617610  0.96141613
   0.98066643  0.73598404  0.70544310
   0.00440766  0.68624163  0.06098789
   0.92822199  0.73710730  0.29009631
   0.31983737  0.92174348  0.65197613
   0.34028916  0.94668465  0.01287651
   0.37537715  0.87577556  0.24661096
   0.00488971  0.59789580  0.35890563
   0.67583443  0.36843106  0.66596215
   0.63470433  0.39369756  0.03778251
   0.66452988  0.44660850  0.22484875
   0.41870453  0.96820099  0.33689813
   0.08003810  0.21684800  0.22305636
   0.12672354  0.16648748  0.34131126
   0.05518602  0.26564327  0.88557998
   0.09758538  0.21440996  0.02252629
   0.66534513  0.13260479  0.27773930
   0.65981417  0.17860304  0.40736341
   0.64677183  0.10634923  0.93142550
   0.64901080  0.14918647  0.07732152
   0.99992915  0.44902043  0.57044683
   0.01452525  0.48374849  0.69725589
   0.28089618  0.62090014  0.26858659
   0.22793753  0.63678266  0.38702218
   0.33423643  0.58089713  0.94076058
   0.28536244  0.59372768  0.08233938
   0.54494841  0.01572624  0.58156180
   0.49945320  0.01527835  0.69770329
   0.23322676  0.06636984  0.41296666
   0.18770518  0.11681485  0.27495236
   0.20459665  0.11488566  0.07588708
   0.15820240  0.16395680  0.95606434
   0.62806641  0.28454216  0.50137302
   0.64015401  0.23823167  0.34718829
   0.03494502  0.56613172  0.77672008
   0.01683767  0.53369372  0.63308914
   0.62970970  0.25252310  0.14565816
   0.63209283  0.20819408  0.01603751
   0.12611135  0.64334360  0.46274393
   0.17891174  0.62777915  0.32528001
   0.40894974  0.00314190  0.75860396
   0.45652076  0.99977037  0.62360321
   0.18046311  0.60564611  0.13017289
   0.23467850  0.58700508  0.01728120
   0.76992743  0.93253935  0.58977879
   0.81545320  0.88223872  0.72821366
   0.79875606  0.88403845  0.92706863
   0.84507071  0.83513838  0.04736524
   0.37681720  0.71352566  0.50234155
   0.36402262  0.76032236  0.65658208
   0.96888259  0.43376970  0.22806350
   0.98683912  0.46583987  0.37105215
   0.37405267  0.74620452  0.85836794
   0.37139206  0.79077181  0.98739369
   0.87779166  0.35603086  0.54191183
   0.82493726  0.37145014  0.68005027
   0.59400920  0.99636352  0.24462408
   0.54654113  0.99974997  0.37982271
   0.82367404  0.39350320  0.87492894
   0.76864267  0.41210962  0.98790642
   0.92308013  0.78269759  0.78217771
   0.87671307  0.83231564  0.66193589
   0.94793957  0.73417076  0.11913162
   0.90592676  0.78493410  0.98045321
   0.33848434  0.86616733  0.72564860
   0.34413459  0.81993157  0.59563259
   0.35693289  0.89249563  0.07181114
   0.35476475  0.84959014  0.92603858
   0.00385808  0.55038649  0.43233188
   0.98907320  0.51569511  0.30688112
   0.72269358  0.37829704  0.73525629
   0.77584900  0.36251874  0.61723069
   0.66957189  0.41790663  0.06284212
   0.71860133  0.40518781  0.92242648
   0.45811106  0.98376479  0.42179747
   0.50360693  0.98425747  0.30572997
   0.11423106  0.16766426  0.49317536
   0.66928654  0.16734914  0.56179001
   0.02467564  0.47111860  0.85054629
   0.22308363  0.65880578  0.53069674
   0.49762878  0.02753876  0.85217229
   0.17081759  0.16278813  0.80454854
   0.62180768  0.21888583  0.86162292
   0.23608474  0.56990547  0.86873159
   0.83239738  0.83634062  0.19876766
   0.38176241  0.78000624  0.14199741
   0.76754589  0.42916019  0.13654568
   0.88900996  0.83129116  0.50999274
   0.33462614  0.83125067  0.44153314
   0.97901544  0.52835395  0.15340622
   0.78076158  0.34059743  0.47331640
   0.50535286  0.97205991  0.15125986
   0.34953687  0.58792151  0.56867067
   0.01643417  0.32368326  0.50308588
   0.63911395  0.05953532  0.54943817
   0.06817601  0.66361816  0.84077179
   0.35145964  0.01274457  0.12893248
   0.28433689  0.00691887  0.78617418
   0.60954456  0.37226254  0.26220867
   0.63651783  0.33552001  0.83631171
   0.06055288  0.59695602  0.15872072
   0.65171048  0.98640402  0.87415125
   0.93593833  0.33527430  0.16630640
   0.39455163  0.62478882  0.73894293
   0.71899586  0.99198956  0.21691658
   0.94320492  0.40234722  0.84502228
   0.36710928  0.66434884  0.16746014
   0.65457536  0.41098886  0.43493145
   0.98586299  0.67878056  0.49791518
   0.36421470  0.93962301  0.45390427
Co–organic framework                  
           1
    24.489657    1.216380   -0.419501
    13.311544   21.855251   -0.414472
    -0.106780   -0.062750    6.870994
   O    C    H    Co
  48  64  16  18
Direct configuration=     4
   0.02339033  0.26337951  0.30018286
   0.99929995  0.31290873  0.94314670
   0.07513183  0.26258098  0.71288446
   0.68406144  0.07684366  0.35116181
   0.66367080  0.05205197  0.98949009
   0.62789700  0.12331788  0.75677670
   0.99914696  0.40104767  0.64606322
   0.32770610  0.63061539  0.33734286
   0.36932123  0.60427863  0.96597767
   0.33847344  0.55269672  0.77955633
   0.58449674  0.03115704  0.66667254
   0.29003917  0.02209885  0.34909785
   0.21650569  0.06712132  0.58636477
   0.26216413  0.06949521  0.99772201
   0.58954213  0.34568325  0.47314934
   0.65061604  0.26609746  0.67111876
   0.03391554  0.61384765  0.72054341
   0.05126509  0.54620487  0.95090284
   0.62017250  0.30678594  0.08244623
   0.07792054  0.64165681  0.39598800
   0.13001450  0.65721490  0.64076255
   0.36893146  0.98961497  0.68950886
   0.40753594  0.01936271  0.93615402
   0.13175556  0.60317401  0.04342038
   0.71304956  0.97661177  0.65311633
   0.78679352  0.93174296  0.41645345
   0.74105350  0.92945835  0.00523120
   0.41506567  0.65315754  0.52943882
   0.35362226  0.73240959  0.33225474
   0.97030206  0.38472260  0.28454390
   0.95214701  0.45331008  0.05451485
   0.38367416  0.69248086  0.92271070
   0.92540195  0.35855826  0.60824974
   0.87384143  0.34190441  0.36445137
   0.63384293  0.01031845  0.31300208
   0.59568974  0.97978072  0.06745049
   0.87170287  0.39618921  0.96143752
   0.98063124  0.73597347  0.70530405
   0.00427707  0.68638749  0.06102682
   0.92821078  0.73712202  0.29013623
   0.31982271  0.92182215  0.65196381
   0.34029640  0.94670256  0.01293004
   0.37537901  0.87579882  0.24658400
   0.00482179  0.59792816  0.35921118
   0.67589813  0.36842048  0.66609700
   0.63475491  0.39370664  0.03793240
   0.66452777  0.44658065  0.22494975
   0.41869515  0.96820145  0.33688314
   0.08019715  0.21671149  0.22251756
   0.12664913  0.16658482  0.34133680
   0.05526022  0.26556204  0.88557206
   0.09754878  0.21437961  0.02290913
   0.66532305  0.13267152  0.27777682
   0.65983603  0.17854076  0.40741414
   0.64675020  0.10639016  0.93136572
   0.64902126  0.14917340  0.07729796
   0.99987257  0.44906236  0.57103804
   0.01453577  0.48378620  0.69729037
   0.28100214  0.62087027  0.26904777
   0.22799607  0.63678124  0.38720323
   0.33424333  0.58094501  0.94092616
   0.28532317  0.59372572  0.08216595
   0.54496226  0.01572814  0.58170695
   0.49945211  0.01529293  0.69777695
   0.23321753  0.06636509  0.41297588
   0.18775284  0.11676549  0.27485634
   0.20455231  0.11491774  0.07596100
   0.15822630  0.16395394  0.95607599
   0.62797305  0.28466224  0.50098517
   0.64014928  0.23826501  0.34719374
   0.03495516  0.56608317  0.77688434
   0.01685003  0.53368450  0.63313422
   0.62969338  0.25257483  0.14562571
   0.63208889  0.20816684  0.01595922
   0.12612103  0.64337350  0.46284402
   0.17889322  0.62774715  0.32528370
   0.40894408  0.00314747  0.75870730
   0.45654934  0.99976942  0.62357879
   0.18034519  0.60563293  0.13010184
   0.23482243  0.58694548  0.01721266
   0.76994733  0.93253046  0.58975489
   0.81544704  0.88224105  0.72823426
   0.79874400  0.88404772  0.92704216
   0.84505627  0.83514018  0.04732370
   0.37669635  0.71354576  0.50271832
   0.36395396  0.76030714  0.65645762
   0.96878688  0.43365979  0.22771401
   0.98681075  0.46585995  0.37101743
   0.37409777  0.74614484  0.85819720
   0.37147076  0.79073353  0.98750626
   0.87770284  0.35605044  0.54198470
   0.82494772  0.37144968  0.67997519
   0.59404116  0.99636404  0.24452349
   0.54651381  0.99975261  0.37984821
   0.82362184  0.39350310  0.87511923
   0.76869461  0.41209698  0.98797897
   0.92307420  0.78270629  0.78213382
   0.87671700  0.83231513  0.66192195
   0.94805525  0.73408381  0.11903664
   0.90592580  0.78492537  0.98051662
   0.33851555  0.86605541  0.72553634
   0.34409953  0.82002421  0.59572508
   0.35692090  0.89247348  0.07180790
   0.35472722  0.84960547  0.92603561
   0.00385608  0.55040221  0.43231230
   0.98908439  0.51569938  0.30681429
   0.72272828  0.37827105  0.73502074
   0.77581371  0.36249024  0.61715354
   0.66949581  0.41791766  0.06277285
   0.71858813  0.40519431  0.92252980
   0.45811248  0.98375962  0.42171388
   0.50359952  0.98424517  0.30566090
   0.11423125  0.16765305  0.49309360
   0.66928835  0.16734528  0.56169508
   0.02465987  0.47112705  0.85046605
   0.22306868  0.65883879  0.53068665
   0.49763417  0.02753571  0.85208190
   0.17080950  0.16278643  0.80461309
   0.62182397  0.21887335  0.86172397
   0.23606085  0.56993635  0.86875935
   0.83240023  0.83634095  0.19868523
   0.38174818  0.78002067  0.14188088
   0.76755685  0.42914124  0.13639819
   0.88900502  0.83128230  0.51007794
   0.33461440  0.83126059  0.44162592
   0.97902206  0.52833935  0.15350394
   0.78075420  0.34060992  0.47341930
   0.50534452  0.97206097  0.15132972
   0.34915079  0.58789440  0.56878261
   0.01704758  0.32247400  0.50481276
   0.63911386  0.05958274  0.54944843
   0.06821408  0.66366719  0.84052293
   0.35147833  0.01272428  0.12905531
   0.28432782  0.00689133  0.78601107
   0.60947064  0.37232907  0.26202819
   0.63644995  0.33542705  0.83629761
   0.06049129  0.59689739  0.15871122
   0.65171687  0.98638325  0.87418133
   0.93570374  0.33544164  0.16568200
   0.39454999  0.62542906  0.74002717
   0.71900318  0.99199567  0.21693465
   0.94321172  0.40249216  0.84535050
   0.36734357  0.66388932  0.16723489
   0.65464919  0.41110639  0.43471843
   0.98586591  0.67873491  0.49779437
   0.36420325  0.93961662  0.45386216
Co–organic framework                  
           1
    24.493530    1.217473   -0.418861
    13.314427   21.858452   -0.416078
    -0.106584   -0.063392    6.871283
   O    C    H    Co
  48  64  16  18
Direct configuration=     5
   0.02331963  0.26343471  0.30000032
   0.99932496  0.31289344  0.94316379
   0.07522150  0.26254994  0.71327835
   0.68406334  0.07681865  0.35117645
   0.66367275  0.05203667  0.98948022
   0.62789739  0.12330785  0.75679456
   0.99910656  0.40118019  0.64575358
   0.32775088  0.63065666  0.33739583
   0.36927301  0.60444211  0.96582864
   0.33851564  0.55269835  0.77927216
   0.58449517  0.03115720  0.66665699
   0.29004110  0.02209907  0.34908867
   0.21650671  0.06712287  0.58635719
   0.26217910  0.06948856  0.99771910
   0.58956848  0.34565554  0.47322416
   0.65064316  0.26607951  0.67120630
   0.03391848  0.61386886  0.72059277
   0.05126290  0.54620997  0.95078735
   0.62021316  0.30672732  0.08246609
   0.07790755  0.64166656  0.39602536
   0.13001563  0.65721015  0.64077783
   0.36893339  0.98961921  0.68954471
   0.40753357  0.01935942  0.93610895
   0.13179083  0.60318586  0.04348343
   0.71304216  0.97661444  0.65312790
   0.78679092  0.93174249  0.41646062
   0.74105636  0.92945650  0.00522007
   0.41502744  0.65307492  0.52972600
   0.35365837  0.73237239  0.33222305
   0.97020442  0.38491398  0.28428271
   0.95214857  0.45332940  0.05436431
   0.38363427  0.69239538  0.92226759
   0.92540967  0.35857206  0.60821315
   0.87386549  0.34189098  0.36446870
   0.63383486  0.01031522  0.31297197
   0.59569065  0.97978275  0.06747674
   0.87170648  0.39619363  0.96144472
   0.98061941  0.73596991  0.70525726
   0.00423314  0.68643656  0.06103997
   0.92820701  0.73712697  0.29014966
   0.31981777  0.92184862  0.65195968
   0.34029883  0.94670859  0.01294805
   0.37537964  0.87580665  0.24657493
   0.00479894  0.59793906  0.35931401
   0.67591956  0.36841693  0.66614237
   0.63477191  0.39370969  0.03798283
   0.66452706  0.44657129  0.22498374
   0.41869199  0.96820160  0.33687810
   0.08025067  0.21666555  0.22233622
   0.12662409  0.16661757  0.34134542
   0.05528518  0.26553472  0.88556937
   0.09753646  0.21436942  0.02303794
   0.66531562  0.13269397  0.27778947
   0.65984338  0.17851981  0.40743119
   0.64674293  0.10640393  0.93134562
   0.64902478  0.14916900  0.07729002
   0.99985352  0.44907648  0.57123698
   0.01453931  0.48379889  0.69730197
   0.28103778  0.62086023  0.26920292
   0.22801575  0.63678076  0.38726414
   0.33424564  0.58096113  0.94098188
   0.28530996  0.59372506  0.08210760
   0.54496692  0.01572879  0.58175579
   0.49945174  0.01529783  0.69780174
   0.23321442  0.06636349  0.41297899
   0.18776887  0.11674888  0.27482401
   0.20453739  0.11492854  0.07598588
   0.15823434  0.16395298  0.95607991
   0.62794165  0.28470262  0.50085470
   0.64014769  0.23827623  0.34719558
   0.03495856  0.56606685  0.77693960
   0.01685419  0.53368140  0.63314939
   0.62968789  0.25259223  0.14561480
   0.63208757  0.20815768  0.01593287
   0.12612428  0.64338356  0.46287770
   0.17888699  0.62773639  0.32528494
   0.40894217  0.00314935  0.75874207
   0.45655895  0.99976909  0.62357057
   0.18030553  0.60562850  0.13007794
   0.23487085  0.58692542  0.01718957
   0.76995403  0.93252747  0.58974684
   0.81544497  0.88224184  0.72824120
   0.79873994  0.88405084  0.92703325
   0.84505141  0.83514079  0.04730973
   0.37665569  0.71355254  0.50284511
   0.36393087  0.76030201  0.65641575
   0.96875470  0.43362281  0.22759639
   0.98680120  0.46586670  0.37100576
   0.37411295  0.74612475  0.85813973
   0.37149723  0.79072066  0.98754412
   0.87767296  0.35605704  0.54200924
   0.82495124  0.37144952  0.67994993
   0.59405192  0.99636421  0.24448963
   0.54650462  0.99975350  0.37985679
   0.82360428  0.39350307  0.87518327
   0.76871208  0.41209272  0.98800337
   0.92307220  0.78270921  0.78211906
   0.87671832  0.83231496  0.66191726
   0.94809416  0.73405456  0.11900465
   0.90592547  0.78492244  0.98053796
   0.33852606  0.86601775  0.72549854
   0.34408773  0.82005537  0.59575622
   0.35691686  0.89246603  0.07180681
   0.35471460  0.84961063  0.92603462
   0.00385541  0.55040749  0.43230572
   0.98908816  0.51570082  0.30679180
   0.72273995  0.37826230  0.73494146
   0.77580184  0.36248066  0.61712758
   0.66947022  0.41792138  0.06274956
   0.71858369  0.40519650  0.92256457
   0.45811296  0.98375788  0.42168575
   0.50359703  0.98424104  0.30563765
   0.11423132  0.16764927  0.49306609
   0.66928896  0.16734398  0.56166314
   0.02465457  0.47112989  0.85043905
   0.22306365  0.65884990  0.53068327
   0.49763599  0.02753468  0.85205148
   0.17080678  0.16278586  0.80463481
   0.62182944  0.21886916  0.86175796
   0.23605281  0.56994674  0.86876869
   0.83240120  0.83634106  0.19865750
   0.38174339  0.78002552  0.14184168
   0.76756053  0.42913487  0.13634856
   0.88900336  0.83127932  0.51010661
   0.33461044  0.83126392  0.44165714
   0.97902428  0.52833444  0.15353682
   0.78075172  0.34061412  0.47345393
   0.50534171  0.97206133  0.15135322
   0.34902091  0.58788530  0.56882031
   0.01725393  0.32206726  0.50539349
   0.63911383  0.05959868  0.54945189
   0.06822689  0.66368368  0.84043921
   0.35148461  0.01271746  0.12909664
   0.28432477  0.00688206  0.78595618
   0.60944578  0.37235144  0.26196748
   0.63642712  0.33539579  0.83629285
   0.06047057  0.59687767  0.15870802
   0.65171901  0.98637626  0.87419144
   0.93562484  0.33549792  0.16547196
   0.39454939  0.62564446  0.74039213
   0.71900564  0.99199773  0.21694073
   0.94321399  0.40254093  0.84546097
   0.36742241  0.66373473  0.16715897
   0.65467402  0.41114592  0.43464677
   0.98586690  0.67871955  0.49775370
   0.36419940  0.93961446  0.45384799
Co–organic framework                  
           1
    24.469280    1.225852   -0.422254
    13.309500   21.844749   -0.413823
    -0.107514   -0.062048    6.871562
   O    C    H    Co
  48  64  16  18
Direct configuration=     6
   0.02337609  0.26344153  0.30071309
   0.99905136  0.31307276  0.94311444
   0.07465642  0.26262354  0.71371564
   0.68412310  0.07669235  0.35146317
   0.66373607  0.05190217  0.98976456
   0.62790498  0.12332967  0.75660442
   0.99929978  0.40133588  0.64632462
   0.32757100  0.63034166  0.33650603
   0.37005128  0.60317773  0.96691359
   0.33812151  0.55256578  0.77999266
   0.58449636  0.03115877  0.66673889
   0.29007766  0.02205580  0.34911401
   0.21652321  0.06708141  0.58650920
   0.26219687  0.06946336  0.99762147
   0.58954958  0.34555805  0.47310013
   0.65074634  0.26598690  0.67237347
   0.03390693  0.61399881  0.72013690
   0.05123070  0.54623452  0.95069155
   0.62008006  0.30680235  0.08232085
   0.07784637  0.64162700  0.39580251
   0.13000178  0.65722001  0.64056200
   0.36889006  0.98957813  0.68927529