       N       E                     dE             d eps       ncg     rms          rms(c)
DAV:   1     0.836499837914E+04    0.83650E+04   -0.33422E+05  2160   0.127E+03
DAV:   2     0.632767155276E+03   -0.77322E+04   -0.69485E+04  2580   0.392E+02
DAV:   3    -0.128588498495E+04   -0.19187E+04   -0.18324E+04  3576   0.199E+02
DAV:   4    -0.140347704589E+04   -0.11759E+03   -0.11284E+03  3360   0.575E+01
DAV:   5    -0.140841855926E+04   -0.49415E+01   -0.48290E+01  3588   0.119E+01    0.151E+02
RMM:   6    -0.177426965733E+04   -0.36585E+03   -0.31006E+03  2690   0.119E+02    0.469E+02
RMM:   7    -0.156280553837E+04    0.21146E+03   -0.20842E+02  2179   0.394E+01    0.304E+02
RMM:   8    -0.109978112527E+04    0.46302E+03   -0.45625E+02  2216   0.410E+01    0.720E+01
RMM:   9    -0.111316087211E+04   -0.13380E+02   -0.12505E+02  2406   0.172E+01    0.798E+01
RMM:  10    -0.120215726310E+04   -0.88996E+02   -0.51931E+01  2259   0.153E+01    0.131E+02
RMM:  11    -0.111804147650E+04    0.84116E+02   -0.55051E+01  2226   0.154E+01    0.848E+01
RMM:  12    -0.109718148768E+04    0.20860E+02   -0.21569E+01  2218   0.944E+00    0.591E+01
RMM:  13    -0.114333399728E+04   -0.46153E+02   -0.36945E+01  2167   0.132E+01    0.110E+02
RMM:  14    -0.111607907870E+04    0.27255E+02   -0.22067E+01  2188   0.101E+01    0.791E+01
RMM:  15    -0.111014427091E+04    0.59348E+01   -0.72423E+00  2203   0.553E+00    0.607E+01
RMM:  16    -0.111090876478E+04   -0.76449E+00   -0.52760E+00  2215   0.461E+00    0.553E+01
RMM:  17    -0.111420907083E+04   -0.33003E+01   -0.36007E+00  2233   0.384E+00    0.355E+01
RMM:  18    -0.112013411700E+04   -0.59250E+01   -0.27446E+00  2250   0.320E+00    0.391E+01
RMM:  19    -0.112415408542E+04   -0.40200E+01   -0.23570E+00  2241   0.302E+00    0.290E+01
RMM:  20    -0.112976671083E+04   -0.56126E+01   -0.18908E+00  2243   0.278E+00    0.376E+01
RMM:  21    -0.113317317495E+04   -0.34065E+01   -0.15189E+00  2256   0.238E+00    0.273E+01
RMM:  22    -0.113519628533E+04   -0.20231E+01   -0.82953E-01  2357   0.178E+00    0.217E+01
RMM:  23    -0.113999247376E+04   -0.47962E+01   -0.75149E-01  2232   0.151E+00    0.188E+01
RMM:  24    -0.114493562734E+04   -0.49432E+01   -0.10401E+00  2235   0.187E+00    0.226E+01
RMM:  25    -0.115384883170E+04   -0.89132E+01   -0.17246E+00  2198   0.221E+00    0.280E+01
RMM:  26    -0.115504742448E+04   -0.11986E+01   -0.86713E-01  2299   0.177E+00    0.200E+01
RMM:  27    -0.115957602601E+04   -0.45286E+01   -0.58164E-01  2208   0.126E+00    0.193E+01
RMM:  28    -0.115986434421E+04   -0.28832E+00   -0.21953E-01  2283   0.891E-01    0.173E+01
RMM:  29    -0.116243276024E+04   -0.25684E+01   -0.32336E-01  2193   0.904E-01    0.170E+01
RMM:  30    -0.116655082080E+04   -0.41181E+01   -0.61614E-01  2202   0.133E+00    0.174E+01
RMM:  31    -0.117278465064E+04   -0.62338E+01   -0.11885E+00  2194   0.166E+00    0.144E+01
RMM:  32    -0.117685221051E+04   -0.40676E+01   -0.81245E-01  2323   0.146E+00    0.139E+01
RMM:  33    -0.117835314079E+04   -0.15009E+01   -0.33959E-01  2364   0.815E-01    0.121E+01
RMM:  34    -0.117994372681E+04   -0.15906E+01   -0.22492E-01  2271   0.779E-01    0.120E+01
RMM:  35    -0.118239596880E+04   -0.24522E+01   -0.28546E-01  2201   0.812E-01    0.118E+01
RMM:  36    -0.118554350784E+04   -0.31475E+01   -0.34848E-01  2283   0.877E-01    0.103E+01
RMM:  37    -0.118762538123E+04   -0.20819E+01   -0.21880E-01  2397   0.732E-01    0.949E+00
RMM:  38    -0.118988424918E+04   -0.22589E+01   -0.24959E-01  2252   0.774E-01    0.830E+00
RMM:  39    -0.119211687476E+04   -0.22326E+01   -0.21410E-01  2312   0.700E-01    0.709E+00
RMM:  40    -0.119334598514E+04   -0.12291E+01   -0.12029E-01  2389   0.480E-01    0.589E+00
RMM:  41    -0.119475242402E+04   -0.14064E+01   -0.12519E-01  2229   0.459E-01    0.532E+00
RMM:  42    -0.119611050492E+04   -0.13581E+01   -0.16068E-01  2242   0.539E-01    0.520E+00
RMM:  43    -0.119645391411E+04   -0.34341E+00   -0.87673E-02  2367   0.465E-01    0.410E+00
RMM:  44    -0.119802496576E+04   -0.15711E+01   -0.19543E-01  2170   0.483E-01    0.272E+00
RMM:  45    -0.119910720125E+04   -0.10822E+01   -0.12811E-01  2347   0.405E-01    0.208E+00
RMM:  46    -0.119980434411E+04   -0.69714E+00   -0.55426E-02  2466   0.267E-01    0.159E+00
RMM:  47    -0.120054442729E+04   -0.74008E+00   -0.42326E-02  2418   0.224E-01    0.124E+00
RMM:  48    -0.120116535694E+04   -0.62093E+00   -0.29827E-02  2542   0.185E-01    0.967E-01
RMM:  49    -0.120147608029E+04   -0.31072E+00   -0.14692E-02  2599   0.127E-01    0.755E-01
RMM:  50    -0.120154878725E+04   -0.72707E-01   -0.41105E-03  2636   0.711E-02    0.654E-01
RMM:  51    -0.120163937681E+04   -0.90590E-01   -0.16857E-02  2251   0.110E-01    0.552E-01
RMM:  52    -0.120166139694E+04   -0.22020E-01   -0.16872E-03  2216   0.791E-02    0.424E-01
RMM:  53    -0.120166914377E+04   -0.77468E-02   -0.14111E-03  2530   0.432E-02    0.326E-01
RMM:  54    -0.120167574281E+04   -0.65990E-02   -0.59626E-04  2578   0.370E-02    0.226E-01
RMM:  55    -0.120168477244E+04   -0.90296E-02   -0.68015E-04  2538   0.285E-02    0.153E-01
RMM:  56    -0.120168662999E+04   -0.18576E-02   -0.14709E-04  2440   0.202E-02    0.113E-01
RMM:  57    -0.120169031440E+04   -0.36844E-02   -0.19910E-04  2502   0.144E-02    0.783E-02
RMM:  58    -0.120169375893E+04   -0.34445E-02   -0.16587E-04  2534   0.149E-02    0.624E-02
RMM:  59    -0.120169528914E+04   -0.15302E-02   -0.78901E-05  2531   0.904E-03    0.558E-02
RMM:  60    -0.120169649194E+04   -0.12028E-02   -0.45843E-05  2372   0.722E-03    0.434E-02
RMM:  61    -0.120169735944E+04   -0.86750E-03   -0.64187E-05  2271   0.129E-02    0.416E-02
RMM:  62    -0.120169807626E+04   -0.71683E-03   -0.33485E-05  2090   0.703E-03    0.281E-02
RMM:  63    -0.120169858341E+04   -0.50715E-03   -0.22633E-05  2086   0.537E-03    0.182E-02
RMM:  64    -0.120169894353E+04   -0.36012E-03   -0.14094E-05  2053   0.406E-03    0.137E-02
RMM:  65    -0.120169921480E+04   -0.27127E-03   -0.90476E-06  1902   0.334E-03    0.110E-02
RMM:  66    -0.120169931647E+04   -0.10167E-03   -0.40742E-06  1679   0.300E-03    0.122E-02
RMM:  67    -0.120169939446E+04   -0.77989E-04   -0.25041E-06  1518   0.215E-03    0.874E-03
RMM:  68    -0.120169949873E+04   -0.10427E-03   -0.33696E-06  1642   0.204E-03    0.552E-03
RMM:  69    -0.120169957041E+04   -0.71681E-04   -0.27637E-06  1541   0.183E-03    0.349E-03
RMM:  70    -0.120169962723E+04   -0.56821E-04   -0.27588E-06  1536   0.174E-03    0.251E-03
RMM:  71    -0.120169965470E+04   -0.27465E-04   -0.20299E-06  1464   0.172E-03    0.421E-03
RMM:  72    -0.120169966363E+04   -0.89368E-05   -0.90935E-07  1286   0.135E-03    0.203E-03
RMM:  73    -0.120169967158E+04   -0.79472E-05   -0.61530E-07  1223   0.103E-03    0.114E-03
RMM:  74    -0.120169968205E+04   -0.10466E-04   -0.57071E-07  1234   0.937E-04    0.110E-03
RMM:  75    -0.120169968913E+04   -0.70864E-05   -0.45482E-07  1175   0.858E-04    0.645E-04
RMM:  76    -0.120169969476E+04   -0.56312E-05   -0.36902E-07  1130   0.745E-04    0.687E-04
RMM:  77    -0.120169969759E+04   -0.28251E-05   -0.28200E-07  1109   0.676E-04    0.612E-04
RMM:  78    -0.120169969994E+04   -0.23515E-05   -0.21953E-07  1061   0.590E-04    0.388E-04
RMM:  79    -0.120169970165E+04   -0.17121E-05   -0.16888E-07  1021   0.532E-04    0.302E-04
RMM:  80    -0.120169970259E+04   -0.93691E-06   -0.11524E-07   961   0.463E-04
   1 F= -.12095017E+04 E0= -.12095017E+04  d E =-.120950E+04  mag=    54.0003
       N       E                     dE             d eps       ncg     rms          rms(c)
DAV:   1    -0.120170028556E+04   -0.58391E-03   -0.26891E-01  2520   0.165E+00    0.762E-01
RMM:   2    -0.120169391460E+04    0.63710E-02   -0.30130E-02  2160   0.438E-01    0.713E-01
RMM:   3    -0.120169304043E+04    0.87416E-03   -0.54583E-03  2565   0.162E-01    0.373E-01
RMM:   4    -0.120169470365E+04   -0.16632E-02   -0.36607E-03  2475   0.121E-01    0.871E-01
RMM:   5    -0.120169238506E+04    0.23186E-02   -0.17017E-03  2345   0.895E-02    0.141E-01
RMM:   6    -0.120169264252E+04   -0.25746E-03   -0.51276E-04  2557   0.415E-02    0.159E-01
RMM:   7    -0.120169271674E+04   -0.74214E-04   -0.27271E-04  2424   0.324E-02    0.223E-01
RMM:   8    -0.120169256261E+04    0.15413E-03   -0.14803E-04  2414   0.261E-02    0.346E-02
RMM:   9    -0.120169259729E+04   -0.34680E-04   -0.42309E-05  2513   0.117E-02    0.174E-02
RMM:  10    -0.120169260655E+04   -0.92589E-05   -0.71382E-06  1653   0.570E-03    0.284E-02
RMM:  11    -0.120169260849E+04   -0.19484E-05   -0.33495E-06  1534   0.416E-03    0.862E-03
RMM:  12    -0.120169261596E+04   -0.74632E-05   -0.11058E-06  1343   0.249E-03    0.512E-03
RMM:  13    -0.120169261965E+04   -0.36942E-05   -0.65858E-07  1314   0.181E-03    0.810E-03
RMM:  14    -0.120169262353E+04   -0.38748E-05   -0.44911E-07  1323   0.155E-03    0.286E-03
RMM:  15    -0.120169262973E+04   -0.62077E-05   -0.30569E-07  1336   0.946E-04    0.256E-03
RMM:  16    -0.120169263359E+04   -0.38526E-05   -0.24706E-07  1322   0.927E-04    0.319E-03
RMM:  17    -0.120169263603E+04   -0.24426E-05   -0.18524E-07  1232   0.746E-04    0.134E-03
RMM:  18    -0.120169264012E+04   -0.40912E-05   -0.18419E-07  1174   0.592E-04    0.741E-04
RMM:  19    -0.120169264342E+04   -0.33015E-05   -0.16336E-07  1106   0.563E-04    0.763E-04
RMM:  20    -0.120169264529E+04   -0.18647E-05   -0.13061E-07  1009   0.521E-04    0.123E-03
RMM:  21    -0.120169264718E+04   -0.18968E-05   -0.11120E-07   993   0.487E-04    0.443E-04
RMM:  22    -0.120169265034E+04   -0.31605E-05   -0.13695E-07  1065   0.464E-04    0.395E-04
RMM:  23    -0.120169265316E+04   -0.28168E-05   -0.13876E-07  1092   0.499E-04    0.473E-04
RMM:  24    -0.120169265496E+04   -0.17961E-05   -0.12950E-07  1080   0.483E-04    0.806E-04
RMM:  25    -0.120169265689E+04   -0.19336E-05   -0.13413E-07  1070   0.479E-04    0.326E-04
RMM:  26    -0.120169265797E+04   -0.10737E-05   -0.98794E-08   965   0.443E-04    0.237E-04
RMM:  27    -0.120169265827E+04   -0.30248E-06   -0.57928E-08   838   0.370E-04
   2 F= -.12095020E+04 E0= -.12095020E+04  d E =-.337503E-03  mag=    54.0000
       N       E                     dE             d eps       ncg     rms          rms(c)
DAV:   1    -0.120169742236E+04   -0.47644E-02   -0.47077E-02  2544   0.690E-01    0.319E-01
RMM:   2    -0.120169627341E+04    0.11490E-02   -0.52790E-03  2160   0.183E-01    0.299E-01
RMM:   3    -0.120169612954E+04    0.14387E-03   -0.95446E-04  2566   0.679E-02    0.157E-01
RMM:   4    -0.120169642282E+04   -0.29328E-03   -0.64195E-04  2474   0.505E-02    0.362E-01
RMM:   5    -0.120169599928E+04    0.42354E-03   -0.29733E-04  2338   0.375E-02    0.588E-02
RMM:   6    -0.120169605913E+04   -0.59854E-04   -0.88143E-05  2528   0.172E-02    0.587E-02
RMM:   7    -0.120169606393E+04   -0.48028E-05   -0.37004E-05  2256   0.126E-02    0.723E-02
RMM:   8    -0.120169604588E+04    0.18055E-04   -0.16803E-05  1801   0.874E-03    0.173E-02
RMM:   9    -0.120169605041E+04   -0.45302E-05   -0.60267E-06  1848   0.480E-03    0.574E-03
RMM:  10    -0.120169605120E+04   -0.78878E-06   -0.13816E-06  1325   0.262E-03
   3 F= -.12095023E+04 E0= -.12095023E+04  d E =-.641189E-03  mag=    54.0000
       N       E                     dE             d eps       ncg     rms          rms(c)
DAV:   1    -0.120169376489E+04    0.22855E-02   -0.22692E-01  2472   0.111E+00    0.290E-01
RMM:   2    -0.120169314788E+04    0.61701E-03   -0.87537E-03  2362   0.207E-01    0.207E-01
RMM:   3    -0.120169345545E+04   -0.30757E-03   -0.15877E-03  2416   0.944E-02    0.388E-01
RMM:   4    -0.120169305948E+04    0.39597E-03   -0.77724E-04  2638   0.587E-02    0.175E-01
RMM:   5    -0.120169303102E+04    0.28456E-04   -0.16964E-04  2395   0.281E-02    0.884E-02
RMM:   6    -0.120169304152E+04   -0.10500E-04   -0.14943E-04  2650   0.185E-02    0.701E-02
RMM:   7    -0.120169307334E+04   -0.31820E-04   -0.71112E-05  2196   0.175E-02    0.111E-01
RMM:   8    -0.120169303684E+04    0.36501E-04   -0.38325E-05  2217   0.135E-02    0.119E-02
RMM:   9    -0.120169304923E+04   -0.12387E-04   -0.12284E-05  2229   0.631E-03    0.151E-02
RMM:  10    -0.120169305050E+04   -0.12709E-05   -0.29423E-06  1519   0.383E-03    0.173E-02
RMM:  11    -0.120169305040E+04    0.93671E-07   -0.14642E-06  1388   0.297E-03
   4 F= -.12095023E+04 E0= -.12095023E+04  d E =-.302639E-04  mag=    54.0000
       N       E                     dE             d eps       ncg     rms          rms(c)
DAV:   1    -0.120169486432E+04   -0.18138E-02   -0.53516E-02  2496   0.541E-01    0.141E-01
RMM:   2    -0.120169471415E+04    0.15017E-03   -0.20597E-03  2372   0.100E-01    0.100E-01
RMM:   3    -0.120169479562E+04   -0.81475E-04   -0.37164E-04  2421   0.458E-02    0.189E-01
RMM:   4    -0.120169469684E+04    0.98784E-04   -0.18130E-04  2600   0.284E-02    0.845E-02
RMM:   5    -0.120169469650E+04    0.33427E-06   -0.39615E-05  2284   0.137E-02    0.435E-02
RMM:   6    -0.120169470461E+04   -0.81064E-05   -0.39829E-05  2482   0.108E-02    0.619E-02
RMM:   7    -0.120169469703E+04    0.75762E-05   -0.19611E-05  1947   0.946E-03    0.372E-02
RMM:   8    -0.120169469790E+04   -0.86454E-06   -0.80662E-06  1833   0.640E-03
   5 F= -.12095025E+04 E0= -.12095025E+04  d E =-.203505E-03  mag=    54.0000
       N       E                     dE             d eps       ncg     rms          rms(c)
DAV:   1    -0.120169288158E+04    0.18155E-02   -0.10001E-01  2448   0.729E-01    0.201E-01
RMM:   2    -0.120169273815E+04    0.14343E-03   -0.41127E-03  2477   0.136E-01    0.197E-01
RMM:   3    -0.120169305952E+04   -0.32137E-03   -0.97342E-04  2411   0.705E-02    0.367E-01
RMM:   4    -0.120169263822E+04    0.42130E-03   -0.42685E-04  2629   0.458E-02    0.734E-02
RMM:   5    -0.120169268596E+04   -0.47742E-04   -0.71069E-05  2436   0.178E-02    0.578E-02
RMM:   6    -0.120169271918E+04   -0.33220E-04   -0.69865E-05  2421   0.161E-02    0.114E-01
RMM:   7    -0.120169268277E+04    0.36413E-04   -0.41616E-05  2419   0.134E-02    0.232E-02
RMM:   8    -0.120169270084E+04   -0.18077E-04   -0.93353E-06  1834   0.645E-03    0.153E-02
RMM:   9    -0.120169270390E+04   -0.30520E-05   -0.47896E-06  1581   0.480E-03    0.263E-02
RMM:  10    -0.120169270341E+04    0.48430E-06   -0.23019E-06  1500   0.369E-03
   6 F= -.12095027E+04 E0= -.12095027E+04  d E =-.227419E-03  mag=    54.0000
       N       E                     dE             d eps       ncg     rms          rms(c)
DAV:   1    -0.120169258506E+04    0.11884E-03   -0.30293E-04  2484   0.405E-02    0.111E-02
RMM:   2    -0.120169258626E+04   -0.12074E-05   -0.14616E-05  2294   0.898E-03    0.246E-02
RMM:   3    -0.120169258506E+04    0.12077E-05   -0.38156E-06  1540   0.450E-03    0.130E-02
RMM:   4    -0.120169258571E+04   -0.65873E-06   -0.97370E-07  1287   0.285E-03    0.337E-03
RMM:   5    -0.120169258631E+04   -0.59758E-06   -0.42645E-07  1278   0.156E-03
   7 F= -.12095027E+04 E0= -.12095027E+04  d E =-.231050E-03  mag=    54.0000
       N       E                     dE             d eps       ncg     rms          rms(c)
DAV:   1    -0.120169148184E+04    0.11039E-02   -0.69369E-02  2244   0.562E-01    0.110E-01
RMM:   2    -0.120169148364E+04   -0.18039E-05   -0.16814E-03  2613   0.782E-02    0.630E-02
RMM:   3    -0.120169160838E+04   -0.12474E-03   -0.20374E-04  2467   0.331E-02    0.145E-01
RMM:   4    -0.120169154249E+04    0.65892E-04   -0.80623E-05  2474   0.194E-02    0.392E-02
RMM:   5    -0.120169155497E+04   -0.12474E-04   -0.21233E-05  2223   0.895E-03    0.237E-02
RMM:   6    -0.120169156703E+04   -0.12064E-04   -0.13659E-05  1975   0.718E-03    0.483E-02
RMM:   7    -0.120169156465E+04    0.23793E-05   -0.95470E-06  1703   0.667E-03    0.170E-02
RMM:   8    -0.120169157048E+04   -0.58323E-05   -0.18120E-06  1418   0.313E-03    0.520E-03
RMM:   9    -0.120169157365E+04   -0.31709E-05   -0.12843E-06  1420   0.269E-03    0.139E-02
RMM:  10    -0.120169157433E+04   -0.67952E-06   -0.64217E-07  1300   0.206E-03
   8 F= -.12095028E+04 E0= -.12095028E+04  d E =-.968448E-04  mag=    54.0000
       N       E                     dE             d eps       ncg     rms          rms(c)
DAV:   1    -0.120169165026E+04   -0.76605E-04   -0.30691E-04  2496   0.372E-02    0.759E-03
RMM:   2    -0.120169165039E+04   -0.13036E-06   -0.65964E-06  1936   0.535E-03    0.621E-03
RMM:   3    -0.120169165264E+04   -0.22504E-05   -0.16371E-06  1385   0.323E-03    0.143E-02
RMM:   4    -0.120169165210E+04    0.54065E-06   -0.78570E-07  1286   0.238E-03    0.210E-03
RMM:   5    -0.120169165315E+04   -0.10498E-05   -0.24490E-07  1285   0.110E-03    0.182E-03
RMM:   6    -0.120169165347E+04   -0.31723E-06   -0.14047E-07  1284   0.880E-04
   9 F= -.12095028E+04 E0= -.12095028E+04  d E =-.102325E-03  mag=    54.0000
       N       E                     dE             d eps       ncg     rms          rms(c)
DAV:   1    -0.120169081853E+04    0.83462E-03   -0.47237E-02  2268   0.449E-01    0.905E-02
RMM:   2    -0.120169083300E+04   -0.14472E-04   -0.10993E-03  2506   0.662E-02    0.464E-02
RMM:   3    -0.120169090868E+04   -0.75680E-04   -0.13089E-04  2637   0.232E-02    0.500E-02
RMM:   4    -0.120169091325E+04   -0.45772E-05   -0.38285E-05  2310   0.123E-02    0.641E-02
RMM:   5    -0.120169090417E+04    0.90893E-05   -0.12940E-05  2022   0.848E-03    0.146E-02
RMM:   6    -0.120169091646E+04   -0.12296E-04   -0.60262E-06  1822   0.459E-03    0.241E-02
RMM:   7    -0.120169091662E+04   -0.15464E-06   -0.34392E-06  1532   0.434E-03
  10 F= -.12095029E+04 E0= -.12095029E+04  d E =-.884089E-04  mag=    54.0000
       N       E                     dE             d eps       ncg     rms          rms(c)
DAV:   1    -0.120169035689E+04    0.55958E-03   -0.19254E-02  2340   0.287E-01    0.581E-02
RMM:   2    -0.120169035631E+04    0.57994E-06   -0.45183E-04  2503   0.427E-02    0.338E-02
RMM:   3    -0.120169040071E+04   -0.44409E-04   -0.62965E-05  2471   0.169E-02    0.640E-02
RMM:   4    -0.120169038854E+04    0.12173E-04   -0.20938E-05  2027   0.962E-03    0.253E-02
RMM:   5    -0.120169039297E+04   -0.44299E-05   -0.47980E-06  1639   0.489E-03    0.106E-02
RMM:   6    -0.120169039955E+04   -0.65814E-05   -0.47763E-06  1604   0.468E-03    0.303E-02
RMM:   7    -0.120169039769E+04    0.18670E-05   -0.30084E-06  1515   0.429E-03    0.721E-03
RMM:   8    -0.120169039981E+04   -0.21283E-05   -0.74828E-07  1296   0.206E-03    0.332E-03
RMM:   9    -0.120169040043E+04   -0.61982E-06   -0.38205E-07  1295   0.155E-03
  11 F= -.12095029E+04 E0= -.12095029E+04  d E =-.100077E-03  mag=    54.0000
       N       E                     dE             d eps       ncg     rms          rms(c)
DAV:   1    -0.120168979734E+04    0.60248E-03   -0.42284E-02  2328   0.432E-01    0.712E-02
RMM:   2    -0.120168982693E+04   -0.29594E-04   -0.93202E-04  2458   0.616E-02    0.422E-02
RMM:   3    -0.120168989315E+04   -0.66225E-04   -0.12176E-04  2501   0.239E-02    0.702E-02
RMM:   4    -0.120168988061E+04    0.12543E-04   -0.34735E-05  2313   0.119E-02    0.353E-02
RMM:   5    -0.120168988564E+04   -0.50264E-05   -0.78116E-06  1933   0.619E-03    0.134E-02
RMM:   6    -0.120168989597E+04   -0.10332E-04   -0.79249E-06  1735   0.572E-03    0.403E-02
RMM:   7    -0.120168989219E+04    0.37767E-05   -0.44708E-06  1566   0.512E-03    0.816E-03
RMM:   8    -0.120168989581E+04   -0.36161E-05   -0.93259E-07  1332   0.221E-03    0.492E-03
RMM:   9    -0.120168989649E+04   -0.68385E-06   -0.57468E-07  1289   0.191E-03
  12 F= -.12095030E+04 E0= -.12095030E+04  d E =-.713044E-04  mag=    54.0000
       N       E                     dE             d eps       ncg     rms          rms(c)
DAV:   1    -0.120168940477E+04    0.49104E-03   -0.25092E-02  2388   0.333E-01    0.550E-02
RMM:   2    -0.120168941749E+04   -0.12718E-04   -0.55538E-04  2465   0.476E-02    0.318E-02
RMM:   3    -0.120168945907E+04   -0.41582E-04   -0.71944E-05  2506   0.179E-02    0.482E-02
RMM:   4    -0.120168945393E+04    0.51401E-05   -0.18730E-05  2059   0.884E-03    0.297E-02
RMM:   5    -0.120168945675E+04   -0.28144E-05   -0.44816E-06  1602   0.523E-03    0.962E-03
RMM:   6    -0.120168946287E+04   -0.61252E-05   -0.37890E-06  1574   0.416E-03    0.236E-02
RMM:   7    -0.120168946197E+04    0.90372E-06   -0.23518E-06  1503   0.388E-03
  13 F= -.12095030E+04 E0= -.12095030E+04  d E =-.800552E-04  mag=    54.0000
       N       E                     dE             d eps       ncg     rms          rms(c)
DAV:   1    -0.120168920484E+04    0.25803E-03   -0.25873E-02  2280   0.339E-01    0.560E-02
RMM:   2    -0.120168923001E+04   -0.25171E-04   -0.60659E-04  2408   0.510E-02    0.395E-02
RMM:   3    -0.120168926946E+04   -0.39448E-04   -0.97540E-05  2437   0.223E-02    0.830E-02
RMM:   4    -0.120168924826E+04    0.21195E-04   -0.33328E-05  2288   0.121E-02    0.244E-02
RMM:   5    -0.120168925602E+04   -0.77627E-05   -0.57588E-06  1729   0.523E-03    0.121E-02
RMM:   6    -0.120168926097E+04   -0.49419E-05   -0.48373E-06  1586   0.476E-03    0.297E-02
RMM:   7    -0.120168925891E+04    0.20525E-05   -0.31265E-06  1528   0.441E-03    0.888E-03
RMM:   8    -0.120168926068E+04   -0.17680E-05   -0.85690E-07  1297   0.222E-03    0.452E-03
RMM:   9    -0.120168926114E+04   -0.46092E-06   -0.51200E-07  1294   0.181E-03
  14 F= -.12095031E+04 E0= -.12095031E+04  d E =-.593807E-04  mag=    54.0000
       N       E                     dE             d eps       ncg     rms          rms(c)
DAV:   1    -0.120168906359E+04    0.19710E-03   -0.12489E-02  2340   0.236E-01    0.390E-02
RMM:   2    -0.120168907469E+04   -0.11101E-04   -0.29492E-04  2401   0.357E-02    0.310E-02
RMM:   3    -0.120168909670E+04   -0.22014E-04   -0.51682E-05  2385   0.163E-02    0.665E-02
RMM:   4    -0.120168908237E+04    0.14334E-04   -0.17419E-05  1991   0.904E-03    0.146E-02
RMM:   5    -0.120168908819E+04   -0.58203E-05   -0.31328E-06  1544   0.412E-03    0.107E-02
RMM:   6    -0.120168909033E+04   -0.21456E-05   -0.30880E-06  1543   0.409E-03    0.229E-02
RMM:   7    -0.120168908940E+04    0.93793E-06   -0.16581E-06  1458   0.333E-03
  15 F= -.12095031E+04 E0= -.12095031E+04  d E =-.683303E-04  mag=    54.0000
       N       E                     dE             d eps       ncg     rms          rms(c)
DAV:   1    -0.120168899835E+04    0.91983E-04   -0.30799E-02  2268   0.366E-01    0.570E-02
RMM:   2    -0.120168905216E+04   -0.53805E-04   -0.68695E-04  2454   0.535E-02    0.511E-02
RMM:   3    -0.120168909044E+04   -0.38288E-04   -0.11766E-04  2445   0.247E-02    0.102E-01
RMM:   4    -0.120168905735E+04    0.33093E-04   -0.38223E-05  2278   0.133E-02    0.191E-02
RMM:   5    -0.120168906876E+04   -0.11411E-04   -0.69851E-06  1793   0.501E-03    0.136E-02
RMM:   6    -0.120168907409E+04   -0.53240E-05   -0.55317E-06  1594   0.506E-03    0.344E-02
RMM:   7    -0.120168907089E+04    0.31985E-05   -0.33967E-06  1537   0.459E-03    0.868E-03
RMM:   8    -0.120168907288E+04   -0.19887E-05   -0.85860E-07  1315   0.222E-03    0.510E-03
RMM:   9    -0.120168907325E+04   -0.37681E-06   -0.55435E-07  1288   0.190E-03
  16 F= -.12095031E+04 E0= -.12095031E+04  d E =-.605067E-04  mag=    54.0000
       N       E                     dE             d eps       ncg     rms          rms(c)
DAV:   1    -0.120168899919E+04    0.73691E-04   -0.13826E-02  2304   0.245E-01    0.381E-02
RMM:   2    -0.120168902146E+04   -0.22277E-04   -0.30845E-04  2458   0.359E-02    0.284E-02
RMM:   3    -0.120168903789E+04   -0.16430E-04   -0.47578E-05  2388   0.154E-02    0.606E-02
RMM:   4    -0.120168902565E+04    0.12242E-04   -0.15099E-05  1948   0.847E-03    0.139E-02
RMM:   5    -0.120168903081E+04   -0.51594E-05   -0.27272E-06  1530   0.383E-03    0.897E-03
RMM:   6    -0.120168903315E+04   -0.23445E-05   -0.26762E-06  1524   0.372E-03    0.226E-02
RMM:   7    -0.120168903183E+04    0.13256E-05   -0.16489E-06  1464   0.332E-03    0.533E-03
RMM:   8    -0.120168903285E+04   -0.10229E-05   -0.45861E-07  1292   0.161E-03    0.335E-03
RMM:   9    -0.120168903305E+04   -0.19738E-06   -0.30106E-07  1272   0.140E-03
  17 F= -.12095032E+04 E0= -.12095031E+04  d E =-.716764E-04  mag=    54.0000
       N       E                     dE             d eps       ncg     rms          rms(c)
DAV:   1    -0.120168891153E+04    0.12132E-03   -0.37389E-02  2208   0.401E-01    0.560E-02
RMM:   2    -0.120168897789E+04   -0.66358E-04   -0.74876E-04  2400   0.558E-02    0.395E-02
RMM:   3    -0.120168901128E+04   -0.33386E-04   -0.10237E-04  2415   0.233E-02    0.810E-02
RMM:   4    -0.120168899022E+04    0.21058E-04   -0.32527E-05  2257   0.119E-02    0.198E-02
RMM:   5    -0.120168899857E+04   -0.83526E-05   -0.63250E-06  1797   0.499E-03    0.121E-02
RMM:   6    -0.120168900373E+04   -0.51614E-05   -0.54416E-06  1644   0.491E-03    0.326E-02
RMM:   7    -0.120168900034E+04    0.33926E-05   -0.31981E-06  1531   0.450E-03    0.943E-03
RMM:   8    -0.120168900209E+04   -0.17463E-05   -0.82539E-07  1318   0.212E-03    0.396E-03
RMM:   9    -0.120168900249E+04   -0.39893E-06   -0.47707E-07  1291   0.173E-03
  18 F= -.12095032E+04 E0= -.12095032E+04  d E =-.465979E-04  mag=    54.0000
       N       E                     dE             d eps       ncg     rms          rms(c)
DAV:   1    -0.120168892368E+04    0.78409E-04   -0.14472E-02  2232   0.250E-01    0.350E-02
RMM:   2    -0.120168894822E+04   -0.24543E-04   -0.29053E-04  2393   0.348E-02    0.241E-02
RMM:   3    -0.120168896150E+04   -0.13282E-04   -0.39338E-05  2324   0.144E-02    0.487E-02
RMM:   4    -0.120168895355E+04    0.79528E-05   -0.12090E-05  1924   0.739E-03    0.126E-02
RMM:   5    -0.120168895748E+04   -0.39271E-05   -0.22448E-06  1469   0.364E-03    0.756E-03
RMM:   6    -0.120168895961E+04   -0.21266E-05   -0.24497E-06  1510   0.352E-03    0.210E-02
RMM:   7    -0.120168895817E+04    0.14354E-05   -0.14954E-06  1430   0.319E-03    0.554E-03
RMM:   8    -0.120168895902E+04   -0.84560E-06   -0.43235E-07  1294   0.153E-03
  19 F= -.12095032E+04 E0= -.12095032E+04  d E =-.511780E-04  mag=    54.0000
       N       E                     dE             d eps       ncg     rms          rms(c)
DAV:   1    -0.120168889398E+04    0.64191E-04   -0.43635E-02  2172   0.428E-01    0.575E-02
RMM:   2    -0.120168896535E+04   -0.71373E-04   -0.82163E-04  2368   0.570E-02    0.350E-02
RMM:   3    -0.120168900171E+04   -0.36356E-04   -0.88728E-05  2358   0.227E-02    0.640E-02
RMM:   4    -0.120168898938E+04    0.12328E-04   -0.30093E-05  2262   0.109E-02    0.205E-02
RMM:   5    -0.120168899623E+04   -0.68474E-05   -0.51832E-06  1730   0.490E-03    0.128E-02
RMM:   6    -0.120168900300E+04   -0.67709E-05   -0.60810E-06  1684   0.511E-03    0.363E-02
RMM:   7    -0.120168899932E+04    0.36739E-05   -0.37218E-06  1558   0.478E-03    0.743E-03
RMM:   8    -0.120168900222E+04   -0.29007E-05   -0.78876E-07  1327   0.209E-03    0.435E-03
RMM:   9    -0.120168900264E+04   -0.41813E-06   -0.46225E-07  1284   0.172E-03
  20 F= -.12095033E+04 E0= -.12095033E+04  d E =-.588894E-04  mag=    54.0000
       N       E                     dE             d eps       ncg     rms          rms(c)
DAV:   1    -0.120168829962E+04    0.70261E-03   -0.29023E-01  2160   0.110E+00    0.148E-01
RMM:   2    -0.120168883440E+04   -0.53478E-03   -0.54583E-03  2345   0.147E-01    0.844E-02
RMM:   3    -0.120168901168E+04   -0.17728E-03   -0.55763E-04  2388   0.567E-02    0.131E-01
RMM:   4    -0.120168897386E+04    0.37826E-04   -0.19005E-04  2677   0.259E-02    0.588E-02
RMM:   5    -0.120168898927E+04   -0.15411E-04   -0.29093E-05  2257   0.103E-02    0.305E-02
RMM:   6    -0.120168901606E+04   -0.26790E-04   -0.25814E-05  2112   0.968E-03    0.570E-02
RMM:   7    -0.120168900891E+04    0.71493E-05   -0.12813E-05  1728   0.802E-03    0.215E-02
RMM:   8    -0.120168901637E+04   -0.74640E-05   -0.25881E-06  1509   0.368E-03    0.742E-03
RMM:   9    -0.120168901830E+04   -0.19307E-05   -0.10917E-06  1377   0.258E-03    0.117E-02
RMM:  10    -0.120168901800E+04    0.30039E-06   -0.74123E-07  1336   0.219E-03
  21 F= -.12095033E+04 E0= -.12095033E+04  d E =-.113427E-03  mag=    54.0000
       N       E                     dE             d eps       ncg     rms          rms(c)
DAV:   1    -0.120168892821E+04    0.90089E-04   -0.78808E-02  2196   0.579E-01    0.749E-02
RMM:   2    -0.120168905400E+04   -0.12578E-03   -0.15635E-03  2362   0.774E-02    0.418E-02
RMM:   3    -0.120168911448E+04   -0.60481E-04   -0.15037E-04  2374   0.304E-02    0.691E-02
RMM:   4    -0.120168910375E+04    0.10729E-04   -0.53878E-05  2465   0.139E-02    0.302E-02
RMM:   5    -0.120168911085E+04   -0.71004E-05   -0.84149E-06  1975   0.611E-03    0.161E-02
RMM:   6    -0.120168912169E+04   -0.10837E-04   -0.94600E-06  1968   0.592E-03    0.367E-02
RMM:   7    -0.120168911777E+04    0.39161E-05   -0.45029E-06  1570   0.498E-03    0.966E-03
RMM:   8    -0.120168912105E+04   -0.32845E-05   -0.76312E-07  1343   0.217E-03    0.417E-03
RMM:   9    -0.120168912158E+04   -0.52393E-06   -0.44034E-07  1295   0.166E-03
  22 F= -.12095034E+04 E0= -.12095034E+04  d E =-.482959E-04  mag=    54.0000
       N       E                     dE             d eps       ncg     rms          rms(c)
DAV:   1    -0.120168912520E+04   -0.41501E-05   -0.77596E-04  2388   0.578E-02    0.766E-03
RMM:   2    -0.120168912606E+04   -0.85660E-06   -0.15801E-05  2204   0.795E-03    0.577E-03
RMM:   3    -0.120168912734E+04   -0.12771E-05   -0.18854E-06  1422   0.361E-03    0.123E-02
RMM:   4    -0.120168912676E+04    0.57367E-06   -0.80130E-07  1294   0.242E-03    0.260E-03
RMM:   5    -0.120168912732E+04   -0.55232E-06   -0.28490E-07  1271   0.134E-03
  23 F= -.12095034E+04 E0= -.12095034E+04  d E =-.485378E-04  mag=    54.0000
       N       E                     dE             d eps       ncg     rms          rms(c)
DAV:   1    -0.120168894145E+04    0.18531E-03   -0.29095E-02  2172   0.358E-01    0.486E-02
RMM:   2    -0.120168898154E+04   -0.40090E-04   -0.65393E-04  2459   0.507E-02    0.356E-02
RMM:   3    -0.120168901887E+04   -0.37330E-04   -0.82515E-05  2391   0.222E-02    0.814E-02
RMM:   4    -0.120168899724E+04    0.21626E-04   -0.29600E-05  2269   0.116E-02    0.175E-02
RMM:   5    -0.120168900604E+04   -0.87971E-05   -0.50922E-06  1711   0.466E-03    0.124E-02
RMM:   6    -0.120168901258E+04   -0.65381E-05   -0.61182E-06  1670   0.515E-03    0.353E-02
RMM:   7    -0.120168900922E+04    0.33567E-05   -0.38362E-06  1551   0.480E-03    0.797E-03
RMM:   8    -0.120168901158E+04   -0.23620E-05   -0.78776E-07  1311   0.209E-03    0.326E-03
RMM:   9    -0.120168901206E+04   -0.47570E-06   -0.43658E-07  1277   0.163E-03
  24 F= -.12095034E+04 E0= -.12095034E+04  d E =-.416869E-04  mag=    54.0000
       N       E                     dE             d eps       ncg     rms          rms(c)
DAV:   1    -0.120168886615E+04    0.14543E-03   -0.15254E-02  2244   0.260E-01    0.351E-02
RMM:   2    -0.120168888539E+04   -0.19232E-04   -0.34446E-04  2464   0.368E-02    0.223E-02
RMM:   3    -0.120168890421E+04   -0.18829E-04   -0.39647E-05  2329   0.151E-02    0.485E-02
RMM:   4    -0.120168889646E+04    0.77595E-05   -0.13504E-05  1993   0.784E-03    0.138E-02
RMM:   5    -0.120168890085E+04   -0.43994E-05   -0.23824E-06  1475   0.376E-03    0.807E-03
RMM:   6    -0.120168890433E+04   -0.34755E-05   -0.29890E-06  1524   0.379E-03    0.213E-02
RMM:   7    -0.120168890298E+04    0.13469E-05   -0.18534E-06  1459   0.353E-03    0.569E-03
RMM:   8    -0.120168890417E+04   -0.11913E-05   -0.44045E-07  1294   0.157E-03    0.210E-03
RMM:   9    -0.120168890441E+04   -0.23799E-06   -0.24110E-07  1271   0.123E-03
  25 F= -.12095034E+04 E0= -.12095034E+04  d E =-.477277E-04  mag=    54.0000
       N       E                     dE             d eps       ncg     rms          rms(c)
DAV:   1    -0.120168878901E+04    0.11517E-03   -0.10595E-02  2256   0.218E-01    0.273E-02
RMM:   2    -0.120168880133E+04   -0.12323E-04   -0.23693E-04  2507   0.301E-02    0.177E-02
RMM:   3    -0.120168881271E+04   -0.11384E-04   -0.24856E-05  2235   0.122E-02    0.392E-02
RMM:   4    -0.120168880774E+04    0.49687E-05   -0.83328E-06  1832   0.640E-03    0.113E-02
RMM:   5    -0.120168881087E+04   -0.31273E-05   -0.15931E-06  1360   0.328E-03    0.674E-03
RMM:   6    -0.120168881334E+04   -0.24637E-05   -0.22487E-06  1500   0.340E-03    0.186E-02
RMM:   7    -0.120168881239E+04    0.94857E-06   -0.14097E-06  1376   0.310E-03
  26 F= -.12095034E+04 E0= -.12095034E+04  d E =-.249424E-04  mag=    54.0000
       N       E                     dE             d eps       ncg     rms          rms(c)
DAV:   1    -0.120168826694E+04    0.54640E-03   -0.95254E-02  2160   0.655E-01    0.821E-02
RMM:   2    -0.120168840815E+04   -0.14121E-03   -0.21236E-03  2513   0.901E-02    0.522E-02
RMM:   3    -0.120168848595E+04   -0.77804E-04   -0.22292E-04  2454   0.364E-02    0.113E-01
RMM:   4    -0.120168844944E+04    0.36509E-04   -0.78940E-05  2510   0.181E-02    0.354E-02
RMM:   5    -0.120168846320E+04   -0.13752E-04   -0.13075E-05  2153   0.670E-03    0.209E-02
RMM:   6    -0.120168848015E+04   -0.16957E-04   -0.16651E-05  2022   0.782E-03    0.556E-02
RMM:   7    -0.120168847124E+04    0.89158E-05   -0.92102E-06  1679   0.684E-03    0.121E-02
RMM:   8    -0.120168847632E+04   -0.50785E-05   -0.13030E-06  1382   0.275E-03    0.498E-03
RMM:   9    -0.120168847725E+04   -0.93638E-06   -0.73575E-07  1306   0.212E-03
  27 F= -.12095035E+04 E0= -.12095035E+04  d E =-.406550E-04  mag=    54.0000
       N       E                     dE             d eps       ncg     rms          rms(c)
DAV:   1    -0.120168856179E+04   -0.85471E-04   -0.66903E-03  2340   0.174E-01    0.221E-02
RMM:   2    -0.120168856916E+04   -0.73690E-05   -0.14637E-04  2470   0.239E-02    0.175E-02
RMM:   3    -0.120168857800E+04   -0.88407E-05   -0.17790E-05  2093   0.106E-02    0.396E-02
RMM:   4    -0.120168857263E+04    0.53685E-05   -0.61193E-06  1697   0.581E-03    0.802E-03
RMM:   5    -0.120168857521E+04   -0.25815E-05   -0.12262E-06  1316   0.281E-03    0.611E-03
RMM:   6    -0.120168857639E+04   -0.11839E-05   -0.15812E-06  1443   0.302E-03    0.156E-02
RMM:   7    -0.120168857574E+04    0.65610E-06   -0.98156E-07  1299   0.256E-03
  28 F= -.12095035E+04 E0= -.12095035E+04  d E =-.462272E-04  mag=    54.0000
       N       E                     dE             d eps       ncg     rms          rms(c)
DAV:   1    -0.120168847496E+04    0.10144E-03   -0.50597E-03  2364   0.149E-01    0.212E-02
RMM:   2    -0.120168848135E+04   -0.63901E-05   -0.12075E-04  2547   0.212E-02    0.142E-02
RMM:   3    -0.120168848608E+04   -0.47334E-05   -0.13443E-05  2112   0.918E-03    0.349E-02
RMM:   4    -0.120168848150E+04    0.45850E-05   -0.52428E-06  1654   0.552E-03    0.796E-03
RMM:   5    -0.120168848370E+04   -0.22063E-05   -0.12633E-06  1317   0.316E-03    0.572E-03
RMM:   6    -0.120168848415E+04   -0.45151E-06   -0.70946E-07  1292   0.204E-03
  29 F= -.12095035E+04 E0= -.12095035E+04  d E =-.230850E-04  mag=    54.0000
       N       E                     dE             d eps       ncg     rms          rms(c)
DAV:   1    -0.120168808497E+04    0.39873E-03   -0.45351E-02  2160   0.447E-01    0.625E-02
RMM:   2    -0.120168815352E+04   -0.68551E-04   -0.10949E-03  2453   0.642E-02    0.524E-02
RMM:   3    -0.120168819767E+04   -0.44148E-04   -0.14599E-04  2373   0.302E-02    0.120E-01
RMM:   4    -0.120168815238E+04    0.45291E-04   -0.59030E-05  2492   0.169E-02    0.221E-02
RMM:   5    -0.120168816582E+04   -0.13435E-04   -0.10054E-05  1831   0.695E-03    0.187E-02
RMM:   6    -0.120168817112E+04   -0.53005E-05   -0.62826E-06  1648   0.516E-03    0.321E-02
RMM:   7    -0.120168816935E+04    0.17713E-05   -0.43411E-06  1553   0.508E-03    0.121E-02
RMM:   8    -0.120168817236E+04   -0.30134E-05   -0.14504E-06  1346   0.273E-03    0.407E-03
RMM:   9    -0.120168817286E+04   -0.50047E-06   -0.82984E-07  1294   0.233E-03
  30 F= -.12095035E+04 E0= -.12095035E+04  d E =-.557350E-04  mag=    54.0000
       N       E                     dE             d eps       ncg     rms          rms(c)
DAV:   1    -0.120168815544E+04    0.16918E-04   -0.31618E-03  2352   0.117E-01    0.146E-02
RMM:   2    -0.120168815942E+04   -0.39773E-05   -0.73182E-05  2559   0.166E-02    0.100E-02
RMM:   3    -0.120168816276E+04   -0.33380E-05   -0.71368E-06  1869   0.691E-03    0.231E-02
RMM:   4    -0.120168816088E+04    0.18779E-05   -0.27355E-06  1547   0.412E-03    0.561E-03
RMM:   5    -0.120168816224E+04   -0.13608E-05   -0.78347E-07  1300   0.241E-03    0.408E-03
RMM:   6    -0.120168816272E+04   -0.48107E-06   -0.58158E-07  1295   0.192E-03
  31 F= -.12095035E+04 E0= -.12095035E+04  d E =-.229910E-04  mag=    54.0000
       N       E                     dE             d eps       ncg     rms          rms(c)
DAV:   1    -0.120168805779E+04    0.10445E-03   -0.28513E-02  2160   0.352E-01    0.437E-02
RMM:   2    -0.120168809661E+04   -0.38816E-04   -0.64095E-04  2390   0.490E-02    0.266E-02
RMM:   3    -0.120168811716E+04   -0.20551E-04   -0.67110E-05  2228   0.219E-02    0.583E-02
RMM:   4    -0.120168810777E+04    0.93874E-05   -0.28326E-05  2357   0.109E-02    0.197E-02
RMM:   5    -0.120168811264E+04   -0.48757E-05   -0.47234E-06  1708   0.555E-03    0.108E-02
RMM:   6    -0.120168811574E+04   -0.30988E-05   -0.27525E-06  1517   0.332E-03    0.152E-02
RMM:   7    -0.120168811637E+04   -0.62476E-06   -0.24122E-06  1527   0.395E-03
  32 F= -.12095036E+04 E0= -.12095036E+04  d E =-.759232E-04  mag=    54.0000
       N       E                     dE             d eps       ncg     rms          rms(c)
DAV:   1    -0.120168771401E+04    0.40174E-03   -0.11396E-01  2160   0.703E-01    0.877E-02
RMM:   2    -0.120168788768E+04   -0.17367E-03   -0.25592E-03  2412   0.977E-02    0.506E-02
RMM:   3    -0.120168795072E+04   -0.63039E-04   -0.25841E-04  2296   0.424E-02    0.100E-01
RMM:   4    -0.120168792796E+04    0.22755E-04   -0.10629E-04  2632   0.203E-02    0.431E-02
RMM:   5    -0.120168793696E+04   -0.89914E-05   -0.15886E-05  2071   0.920E-03    0.214E-02
RMM:   6    -0.120168794646E+04   -0.95065E-05   -0.97787E-06  2002   0.578E-03    0.319E-02
RMM:   7    -0.120168794766E+04   -0.11984E-05   -0.72626E-06  1599   0.586E-03    0.257E-02
RMM:   8    -0.120168794957E+04   -0.19125E-05   -0.22156E-06  1498   0.362E-03    0.433E-03
RMM:   9    -0.120168795139E+04   -0.18120E-05   -0.81576E-07  1337   0.221E-03    0.107E-02
RMM:  10    -0.120168795111E+04    0.27216E-06   -0.54251E-07  1301   0.191E-03
  33 F= -.12095036E+04 E0= -.12095036E+04  d E =-.108961E-03  mag=    54.0000
       N       E                     dE             d eps       ncg     rms          rms(c)
DAV:   1    -0.120168796645E+04   -0.15061E-04   -0.89079E-03  2364   0.194E-01    0.237E-02
RMM:   2    -0.120168797799E+04   -0.11544E-04   -0.19601E-04  2428   0.278E-02    0.149E-02
RMM:   3    -0.120168798722E+04   -0.92336E-05   -0.20580E-05  2168   0.119E-02    0.363E-02
RMM:   4    -0.120168798273E+04    0.44952E-05   -0.77258E-06  1863   0.619E-03    0.836E-03
RMM:   5    -0.120168798562E+04   -0.28900E-05   -0.15917E-06  1371   0.328E-03    0.559E-03
RMM:   6    -0.120168798749E+04   -0.18763E-05   -0.14645E-06  1396   0.294E-03    0.145E-02
RMM:   7    -0.120168798698E+04    0.51417E-06   -0.85295E-07  1300   0.252E-03
  34 F= -.12095036E+04 E0= -.12095036E+04  d E =-.234476E-04  mag=    54.0000
       N       E                     dE             d eps       ncg     rms          rms(c)
DAV:   1    -0.120168788594E+04    0.10155E-03   -0.80086E-02  2160   0.582E-01    0.710E-02
RMM:   2    -0.120168801085E+04   -0.12491E-03   -0.17495E-03  2385   0.831E-02    0.429E-02
RMM:   3    -0.120168807194E+04   -0.61090E-04   -0.18601E-04  2311   0.360E-02    0.102E-01
RMM:   4    -0.120168804201E+04    0.29925E-04   -0.76348E-05  2564   0.176E-02    0.269E-02
RMM:   5    -0.120168805502E+04   -0.13010E-04   -0.11714E-05  2065   0.680E-03    0.177E-02
RMM:   6    -0.120168806769E+04   -0.12674E-04   -0.10704E-05  1955   0.654E-03    0.471E-02
RMM:   7    -0.120168806146E+04    0.62347E-05   -0.58017E-06  1595   0.552E-03    0.951E-03
RMM:   8    -0.120168806527E+04   -0.38063E-05   -0.96042E-07  1348   0.245E-03    0.507E-03
RMM:   9    -0.120168806570E+04   -0.43528E-06   -0.54603E-07  1299   0.186E-03
  35 F= -.12095037E+04 E0= -.12095037E+04  d E =-.646537E-04  mag=    54.0000
       N       E                     dE             d eps       ncg     rms          rms(c)
DAV:   1    -0.120168738784E+04    0.67743E-03   -0.32050E-01  2160   0.116E+00    0.142E-01
RMM:   2    -0.120168793378E+04   -0.54594E-03   -0.69794E-03  2397   0.166E-01    0.775E-02
RMM:   3    -0.120168810581E+04   -0.17203E-03   -0.68756E-04  2338   0.687E-02    0.159E-01
RMM:   4    -0.120168805061E+04    0.55193E-04   -0.28996E-04  2733   0.325E-02    0.617E-02
RMM:   5    -0.120168807241E+04   -0.21802E-04   -0.37515E-05  2333   0.121E-02    0.328E-02
RMM:   6    -0.120168811215E+04   -0.39737E-04   -0.35401E-05  2181   0.115E-02    0.819E-02
RMM:   7    -0.120168809307E+04    0.19079E-04   -0.19226E-05  1900   0.958E-03    0.162E-02
RMM:   8    -0.120168810361E+04   -0.10537E-04   -0.29145E-06  1537   0.362E-03    0.828E-03
RMM:   9    -0.120168810442E+04   -0.81378E-06   -0.12010E-06  1407   0.274E-03
  36 F= -.12095037E+04 E0= -.12095036E+04  d E =-.273134E-04  mag=    54.0000
       N       E                     dE             d eps       ncg     rms          rms(c)
DAV:   1    -0.120168773033E+04    0.37328E-03   -0.16378E-01  2160   0.832E-01    0.102E-01
RMM:   2    -0.120168799603E+04   -0.26571E-03   -0.35465E-03  2385   0.118E-01    0.605E-02
RMM:   3    -0.120168810922E+04   -0.11318E-03   -0.37339E-04  2309   0.511E-02    0.143E-01
RMM:   4    -0.120168805192E+04    0.57294E-04   -0.15635E-04  2686   0.250E-02    0.388E-02
RMM:   5    -0.120168807498E+04   -0.23052E-04   -0.22644E-05  2250   0.917E-03    0.264E-02
RMM:   6    -0.120168809658E+04   -0.21599E-04   -0.21609E-05  1988   0.918E-03    0.693E-02
RMM:   7    -0.120168808433E+04    0.12249E-04   -0.12095E-05  1780   0.769E-03    0.117E-02
RMM:   8    -0.120168809222E+04   -0.78950E-05   -0.20233E-06  1499   0.316E-03    0.746E-03
RMM:   9    -0.120168809309E+04   -0.86735E-06   -0.94322E-07  1351   0.242E-03
  37 F= -.12095037E+04 E0= -.12095037E+04  d E =-.704924E-04  mag=    54.0000
       N       E                     dE             d eps       ncg     rms          rms(c)
DAV:   1    -0.120168822252E+04   -0.13030E-03   -0.11013E-02  2376   0.218E-01    0.288E-02
RMM:   2    -0.120168823645E+04   -0.13929E-04   -0.24282E-04  2537   0.308E-02    0.251E-02
RMM:   3    -0.120168824808E+04   -0.11628E-04   -0.31947E-05  2258   0.143E-02    0.549E-02
RMM:   4    -0.120168823747E+04    0.10615E-04   -0.11508E-05  1912   0.775E-03    0.938E-03
RMM:   5    -0.120168824193E+04   -0.44651E-05   -0.23889E-06  1505   0.399E-03    0.914E-03
RMM:   6    -0.120168824308E+04   -0.11464E-05   -0.18516E-06  1476   0.321E-03    0.155E-02
RMM:   7    -0.120168824258E+04    0.50101E-06   -0.11066E-06  1318   0.281E-03
  38 F= -.12095037E+04 E0= -.12095037E+04  d E =-.377957E-04  mag=    54.0000
       N       E                     dE             d eps       ncg     rms          rms(c)
DAV:   1    -0.120168840495E+04   -0.16187E-03   -0.48837E-02  2184   0.460E-01    0.603E-02
RMM:   2    -0.120168847780E+04   -0.72850E-04   -0.10910E-03  2499   0.654E-02    0.543E-02
RMM:   3    -0.120168852460E+04   -0.46799E-04   -0.14577E-04  2327   0.311E-02    0.115E-01
RMM:   4    -0.120168848233E+04    0.42268E-04   -0.55775E-05  2477   0.163E-02    0.201E-02
RMM:   5    -0.120168849645E+04   -0.14120E-04   -0.94654E-06  1882   0.664E-03    0.167E-02
RMM:   6    -0.120168850173E+04   -0.52812E-05   -0.54483E-06  1718   0.478E-03    0.271E-02
RMM:   7    -0.120168850082E+04    0.91503E-06   -0.39668E-06  1554   0.483E-03
  39 F= -.12095038E+04 E0= -.12095038E+04  d E =-.603626E-04  mag=    54.0000
       N       E                     dE             d eps       ncg     rms          rms(c)
DAV:   1    -0.120168860784E+04   -0.10610E-03   -0.12815E-02  2328   0.237E-01    0.303E-02
RMM:   2    -0.120168862502E+04   -0.17180E-04   -0.27627E-04  2442   0.338E-02    0.392E-02
RMM:   3    -0.120168863259E+04   -0.75743E-05   -0.41589E-05  2296   0.157E-02    0.513E-02
RMM:   4    -0.120168862593E+04    0.66651E-05   -0.12495E-05  1901   0.771E-03    0.109E-02
RMM:   5    -0.120168863008E+04   -0.41586E-05   -0.28032E-06  1537   0.393E-03    0.784E-03
RMM:   6    -0.120168863181E+04   -0.17277E-05   -0.17972E-06  1410   0.297E-03    0.130E-02
RMM:   7    -0.120168863171E+04    0.97054E-07   -0.13931E-06  1440   0.298E-03
  40 F= -.12095038E+04 E0= -.12095038E+04  d E =-.293332E-04  mag=    54.0000
       N       E                     dE             d eps       ncg     rms          rms(c)
DAV:   1    -0.120168876901E+04   -0.13719E-03   -0.61255E-02  2184   0.518E-01    0.643E-02
RMM:   2    -0.120168885276E+04   -0.83755E-04   -0.12935E-03  2390   0.724E-02    0.595E-02
RMM:   3    -0.120168890435E+04   -0.51593E-04   -0.18219E-04  2297   0.340E-02    0.117E-01
RMM:   4    -0.120168886272E+04    0.41631E-04   -0.67341E-05  2496   0.173E-02    0.248E-02
RMM:   5    -0.120168887662E+04   -0.13898E-04   -0.11984E-05  1973   0.687E-03    0.170E-02
RMM:   6    -0.120168888305E+04   -0.64311E-05   -0.72039E-06  1915   0.518E-03    0.307E-02
RMM:   7    -0.120168888149E+04    0.15590E-05   -0.44987E-06  1571   0.481E-03    0.141E-02
RMM:   8    -0.120168888348E+04   -0.19892E-05   -0.11275E-06  1365   0.255E-03    0.372E-03
RMM:   9    -0.120168888390E+04   -0.41838E-06   -0.59768E-07  1303   0.187E-03
  41 F= -.12095038E+04 E0= -.12095038E+04  d E =-.596873E-04  mag=    54.0000
       N       E                     dE             d eps       ncg     rms          rms(c)
DAV:   1    -0.120168882730E+04    0.56179E-04   -0.18538E-03  2436   0.945E-02    0.187E-02
RMM:   2    -0.120168883050E+04   -0.31933E-05   -0.57381E-05  2555   0.155E-02    0.163E-02
RMM:   3    -0.120168883422E+04   -0.37233E-05   -0.88572E-06  1798   0.738E-03    0.354E-02
RMM:   4    -0.120168882984E+04    0.43763E-05   -0.38147E-06  1544   0.510E-03    0.612E-03
RMM:   5    -0.120168883183E+04   -0.19824E-05   -0.10266E-06  1295   0.260E-03    0.545E-03
RMM:   6    -0.120168883235E+04   -0.51896E-06   -0.70332E-07  1287   0.206E-03
  42 F= -.12095038E+04 E0= -.12095038E+04  d E =-.234212E-04  mag=    54.0000
