<?xml version="1.0" encoding="ISO-8859-1"?>
<modeling>
 <generator>
  <i name="program" type="string">vasp </i>
  <i name="version" type="string">5.4.4.18Apr17-6-g9f103f2a35  </i>
  <i name="subversion" type="string">(build May 21 2019 18:55:53) complex            parallel </i>
  <i name="platform" type="string">IFC19_impi </i>
  <i name="date" type="string">2025 08 14 </i>
  <i name="time" type="string">14:07:59 </i>
 </generator>
 <incar>
  <i type="string" name="SYSTEM"> Co–organic framework</i>
  <i type="string" name="PREC">accurate   (precision level)</i>
  <i type="string" name="ALGO"> Fast       (SCF minimisation algorithm</i>
  <i type="int" name="ISPIN">     2</i>
  <i type="int" name="NELM">   120</i>
  <i type="int" name="NELMIN">     5</i>
  <i type="int" name="IBRION">     2</i>
  <i name="EDIFF">      0.00000100</i>
  <i name="EDIFFG">     -0.00500000</i>
  <i type="int" name="NSW">  1000</i>
  <i type="int" name="ISIF">     3</i>
  <i type="int" name="ISYM">     0</i>
  <i type="int" name="NBLOCK">     1</i>
  <i name="ENCUT">    520.00000000</i>
  <v name="MAGMOM">      0.60000000      0.60000000      0.60000000      0.60000000      0.60000000      0.60000000      0.60000000      0.60000000      0.60000000      0.60000000      0.60000000      0.60000000      0.60000000      0.60000000      0.60000000      0.60000000      0.60000000      0.60000000      0.60000000      0.60000000
      0.60000000      0.60000000      0.60000000      0.60000000      0.60000000      0.60000000      0.60000000      0.60000000      0.60000000      0.60000000      0.60000000      0.60000000      0.60000000      0.60000000      0.60000000      0.60000000      0.60000000      0.60000000      0.60000000      0.60000000
      0.60000000      0.60000000      0.60000000      0.60000000      0.60000000      0.60000000      0.60000000      0.60000000      0.60000000      0.60000000      0.60000000      0.60000000      0.60000000      0.60000000      0.00000000      0.00000000      0.00000000      0.00000000      0.00000000      0.00000000
      0.00000000      0.00000000      0.00000000      0.00000000      0.00000000      0.00000000      0.00000000      0.00000000      0.00000000      0.00000000      0.00000000      0.00000000      0.00000000      0.00000000      0.00000000      0.00000000      0.00000000      0.00000000      0.00000000      0.00000000
      0.00000000      0.00000000      0.00000000      0.00000000      0.00000000      0.00000000      0.00000000      0.00000000      0.00000000      0.00000000      0.00000000      0.00000000      0.00000000      0.00000000      0.00000000      0.00000000      0.00000000      0.00000000      0.00000000      0.00000000
      0.00000000      0.00000000      0.00000000      0.00000000      0.00000000      0.00000000      0.00000000      0.00000000      0.00000000      0.00000000      0.00000000      0.00000000      0.00000000      0.00000000      0.00000000      0.00000000      0.00000000      0.00000000      0.00000000      0.00000000
      0.00000000      0.00000000      0.00000000      0.00000000      0.00000000      0.00000000      0.00000000      0.00000000      0.00000000      0.00000000      0.00000000      0.00000000      0.00000000      0.00000000      0.00000000      0.00000000      0.00000000      0.00000000      0.00000000      0.00000000
      0.00000000      0.00000000      0.00000000      0.00000000      5.00000000      5.00000000      5.00000000      5.00000000      5.00000000      5.00000000      5.00000000      5.00000000      5.00000000      5.00000000      5.00000000      5.00000000      5.00000000      5.00000000      5.00000000      5.00000000
      5.00000000      5.00000000</v>
  <i type="string" name="LREAL"> Auto       (Projection operators: autom</i>
  <i type="int" name="ISMEAR">     0</i>
  <i name="SIGMA">      0.05000000</i>
  <i type="logical" name="LWAVE"> F  </i>
  <i type="logical" name="LCHARG"> T  </i>
  <v type="int" name="KPOINT_BSE">    -1     0     0     0</v>
  <i type="int" name="NELM">   120</i>
 </incar>
 <structure name="primitive_cell" >
  <crystal>
   <varray name="basis" >
    <v>      25.99329048       0.00020217      -0.00072687 </v>
    <v>      12.99682004      22.50962438      -0.00076847 </v>
    <v>      -0.00019043      -0.00012384       6.81966488 </v>
   </varray>
   <i name="volume">   3990.16257547 </i>
   <varray name="rec_basis" >
    <v>       0.03847164      -0.02221312       0.00000067 </v>
    <v>      -0.00000035       0.04442564       0.00000081 </v>
    <v>       0.00000410       0.00000264       0.14663477 </v>
   </varray>
  </crystal>
  <varray name="positions" >
   <v>       0.06153710       0.25191918       0.32245016 </v>
   <v>       0.11319123       0.21057620       0.24275496 </v>
   <v>       0.04738363       0.31232034      -0.47406140 </v>
   <v>      -0.01749063       0.30818495       0.19259547 </v>
   <v>       0.15439263       0.16527799       0.36409358 </v>
   <v>       0.12870285       0.21011651       0.04128479 </v>
   <v>       0.14301045       0.16516764      -0.48208258 </v>
   <v>       0.00394270       0.36754261       0.29348458 </v>
   <v>       0.03787767       0.29639774      -0.03948437 </v>
   <v>       0.08939901       0.25645575      -0.09977985 </v>
   <v>       0.10611777       0.25660523      -0.27456132 </v>
   <v>      -0.07316806       0.30514632       0.39191587 </v>
   <v>      -0.03332306       0.33351568      -0.37293490 </v>
   <v>      -0.07325749       0.32191692      -0.43320597 </v>
   <v>       0.20932179       0.12063598       0.29555208 </v>
   <v>       0.18363121       0.16547220      -0.02724588 </v>
   <v>      -0.00813988       0.41923594       0.23339140 </v>
   <v>      -0.07780911       0.35424216      -0.01105483 </v>
   <v>       0.02443112       0.39150413      -0.34451358 </v>
   <v>       0.22482036       0.12017560       0.09409431 </v>
   <v>      -0.02154868       0.37705762      -0.14095033 </v>
   <v>      -0.02497910       0.43587314       0.05853367 </v>
   <v>       0.19502048       0.16558629      -0.18105709 </v>
   <v>      -0.00180090       0.45890853       0.37458818 </v>
   <v>       0.01335511       0.44344379      -0.42400428 </v>
   <v>       0.24866208       0.07431048       0.43658404 </v>
   <v>      -0.11952995       0.32879961      -0.29216209 </v>
   <v>       0.23200800       0.07423967      -0.38850269 </v>
   <v>      -0.11909765       0.34383631      -0.09068759 </v>
   <v>      -0.16453151       0.35933828       0.18441840 </v>
   <v>      -0.16391945       0.30686129       0.48541903 </v>
   <v>      -0.16435595       0.34781712       0.03059252 </v>
   <v>       0.27648133       0.07883025       0.01444946 </v>
   <v>      -0.16407142       0.31836188      -0.36074768 </v>
   <v>       0.30013763       0.03431034       0.37609306 </v>
   <v>      -0.01297482      -0.48584377       0.30620689 </v>
   <v>       0.01666481       0.48506244      -0.30255046 </v>
   <v>       0.02823185       0.47378543      -0.14872775 </v>
   <v>      -0.02455021      -0.47455746       0.15239329 </v>
   <v>      -0.20889504       0.33737625      -0.03799571 </v>
   <v>       0.29076755       0.01851924      -0.18915420 </v>
   <v>      -0.20929132       0.32228241      -0.23944620 </v>
   <v>       0.35554384       0.02269191       0.14440737 </v>
   <v>      -0.00966711      -0.44422584       0.42765823 </v>
   <v>       0.00549646      -0.45969264      -0.37094658 </v>
   <v>      -0.25539305       0.36105709       0.27782021 </v>
   <v>      -0.25522394       0.34427584       0.10290138 </v>
   <v>       0.33451639      -0.03686965       0.04282124 </v>
   <v>       0.35981069      -0.04625498       0.47749508 </v>
   <v>      -0.25049697       0.31174744      -0.31909319 </v>
   <v>       0.31375087      -0.06057742      -0.31896989 </v>
   <v>       0.37140801      -0.00256950      -0.29028085 </v>
   <v>       0.02868259      -0.43663498      -0.05493770 </v>
   <v>       0.34630450      -0.08845359       0.10312272 </v>
   <v>       0.41596386      -0.02319376       0.34799910 </v>
   <v>       0.41093851       0.02612119      -0.05498138 </v>
   <v>      -0.02076304      -0.39228100       0.34814831 </v>
   <v>       0.01182762      -0.42000834      -0.22979169 </v>
   <v>       0.41110948       0.00934914      -0.22991398 </v>
   <v>      -0.29512578       0.33269774       0.04216184 </v>
   <v>       0.36317807      -0.10513397       0.27792762 </v>
   <v>      -0.31090068       0.35769323       0.47735417 </v>
   <v>       0.32440411      -0.11236831      -0.23942713 </v>
   <v>       0.30909785      -0.14234365       0.48530670 </v>
   <v>       0.45689055      -0.01223148       0.42760766 </v>
   <v>       0.33953204      -0.12789905      -0.03801977 </v>
   <v>       0.45719629       0.00290146      -0.37095794 </v>
   <v>       0.02514110      -0.37778152       0.14460995 </v>
   <v>       0.32062349      -0.15371321      -0.36089926 </v>
   <v>      -0.00029008      -0.36830809      -0.28994943 </v>
   <v>      -0.33135597       0.29779772       0.37538468 </v>
   <v>      -0.30654417       0.28862005      -0.18947462 </v>
   <v>      -0.30344178       0.22982263      -0.38873983 </v>
   <v>      -0.49810322      -0.01566417       0.30628124 </v>
   <v>      -0.32007898       0.24642010       0.43624678 </v>
   <v>      -0.49780051      -0.02724128       0.15244952 </v>
   <v>       0.35015443      -0.18296053       0.03031810 </v>
   <v>      -0.49865879       0.01394846      -0.30241126 </v>
   <v>      -0.04379075      -0.31306659       0.47772949 </v>
   <v>       0.36168260      -0.19433646       0.18410988 </v>
   <v>      -0.36626466       0.36912666      -0.29078879 </v>
   <v>      -0.39018357       0.41365069       0.34768582 </v>
   <v>      -0.37552609       0.35328616       0.14402343 </v>
   <v>      -0.49895088       0.02551152      -0.14857321 </v>
   <v>       0.03686406      -0.33415451       0.37643241 </v>
   <v>      -0.35241622       0.27418929       0.01418952 </v>
   <v>       0.08126992      -0.35486186       0.01446523 </v>
   <v>      -0.32717976       0.20710671       0.29541161 </v>
   <v>       0.33125786      -0.20877993      -0.29257229 </v>
   <v>      -0.03436703      -0.29718480       0.04296065 </v>
   <v>       0.30762984      -0.23141743       0.39138462 </v>
   <v>      -0.45396910      -0.00460126       0.37482007 </v>
   <v>      -0.34220558       0.22257365       0.09393278 </v>
   <v>      -0.45368771       0.01056581      -0.42377065 </v>
   <v>       0.34632085      -0.22428845      -0.09114265 </v>
   <v>      -0.10255367      -0.25742583       0.27824997 </v>
   <v>       0.07675599      -0.32248173       0.43662508 </v>
   <v>      -0.30551879       0.14086729      -0.48202490 </v>
   <v>      -0.31700801       0.15223564       0.36414345 </v>
   <v>       0.32451351      -0.24818377      -0.43387557 </v>
   <v>      -0.41793169       0.40871621      -0.23038960 </v>
   <v>       0.02098403      -0.30883192      -0.18915540 </v>
   <v>      -0.44216853       0.45443274       0.42712131 </v>
   <v>      -0.08587590      -0.25727314       0.10341266 </v>
   <v>       0.12253799      -0.34440978       0.09399616 </v>
   <v>      -0.43449891       0.40850568      -0.05545481 </v>
   <v>       0.12299566      -0.32934253       0.29543155 </v>
   <v>       0.07664560      -0.30567890      -0.38853437 </v>
   <v>      -0.34643603       0.18142465      -0.02724986 </v>
   <v>      -0.05806585      -0.25262488      -0.31879046 </v>
   <v>      -0.40788014      -0.01099548       0.23383493 </v>
   <v>      -0.45764852       0.45471449      -0.37152460 </v>
   <v>      -0.41282250       0.02163614      -0.34425254 </v>
   <v>      -0.47250073       0.49960123       0.15179632 </v>
   <v>      -0.40764374      -0.02779387       0.05890069 </v>
   <v>       0.35683200      -0.27602499      -0.01160285 </v>
   <v>       0.16784763      -0.35987286      -0.18127734 </v>
   <v>      -0.32119558       0.11106439       0.24293908 </v>
   <v>      -0.35794931       0.19280226      -0.18106017 </v>
   <v>       0.16774229      -0.34837300      -0.02747574 </v>
   <v>       0.31055778      -0.29005546       0.19196324 </v>
   <v>      -0.48379435       0.49931080       0.30560550 </v>
   <v>      -0.33625813       0.12655078       0.04147112 </v>
   <v>      -0.12524660      -0.21096490      -0.03759531 </v>
   <v>       0.33635846      -0.29983954      -0.37413405 </v>
   <v>      -0.10976261      -0.21137257      -0.23905721 </v>
   <v>       0.16756047      -0.31891033       0.36377885 </v>
   <v>      -0.36825312       0.00100661       0.29437499 </v>
   <v>       0.25409099      -0.31251038       0.32192457 </v>
   <v>      -0.31090960       0.05942225       0.32268272 </v>
   <v>       0.16746516      -0.30742479      -0.48240358 </v>
   <v>      -0.19158347      -0.16659868       0.18478658 </v>
   <v>       0.21230777      -0.33794105       0.04084490 </v>
   <v>       0.48709011       0.49875703      -0.30317203 </v>
   <v>      -0.18022511      -0.16643293       0.03097615 </v>
   <v>      -0.35685945       0.04498790      -0.47371829 </v>
   <v>      -0.13968704      -0.16596591       0.48582993 </v>
   <v>       0.21278315      -0.32288769       0.24231480 </v>
   <v>      -0.15104485      -0.16612525      -0.36035154 </v>
   <v>       0.29841724      -0.33312303      -0.04064138 </v>
   <v>      -0.34337108       0.08723711      -0.09935122 </v>
   <v>       0.46094063      -0.45664253       0.37393408 </v>
   <v>      -0.35241037      -0.02406784      -0.14061280 </v>
   <v>      -0.36012987       0.10386230      -0.27426999 </v>
   <v>       0.47580081       0.49846385      -0.14935987 </v>
   <v>       0.25868753      -0.36179872      -0.27515295 </v>
   <v>       0.31448250      -0.35895175      -0.47466550 </v>
   <v>      -0.22888994      -0.07523980       0.39228006 </v>
   <v>       0.44547066      -0.45632231      -0.42465529 </v>
   <v>       0.25854763      -0.34486635      -0.10045618 </v>
   <v>       0.36956271      -0.37108746       0.29236897 </v>
   <v>       0.37935615      -0.35499979      -0.14164801 </v>
   <v>      -0.28778485      -0.01969210       0.19292634 </v>
   <v>      -0.33197782       0.03582133      -0.03854288 </v>
   <v>       0.43800758      -0.41048011       0.05783459 </v>
   <v>      -0.24547338      -0.07532869      -0.43272867 </v>
   <v>      -0.20602908      -0.12160312      -0.29176681 </v>
   <v>      -0.22150311      -0.12120541      -0.09033773 </v>
   <v>       0.42130394      -0.41067460       0.23260872 </v>
   <v>      -0.29695521      -0.03539747      -0.37203771 </v>
   <v>       0.39355649      -0.41544732      -0.34509861 </v>
   <v>      -0.27323382      -0.07998637      -0.01072073 </v>
  </varray>
 </structure>
 <varray name="primitive_index" >
  <v type="int" >        1 </v>
  <v type="int" >       55 </v>
  <v type="int" >      146 </v>
  <v type="int" >      155 </v>
  <v type="int" >       56 </v>
  <v type="int" >       58 </v>
  <v type="int" >      127 </v>
  <v type="int" >       35 </v>
  <v type="int" >        2 </v>
  <v type="int" >       57 </v>
  <v type="int" >        3 </v>
  <v type="int" >       39 </v>
  <v type="int" >       38 </v>
  <v type="int" >      103 </v>
  <v type="int" >       74 </v>
  <v type="int" >       78 </v>
  <v type="int" >       99 </v>
  <v type="int" >       42 </v>
  <v type="int" >        8 </v>
  <v type="int" >       77 </v>
  <v type="int" >      158 </v>
  <v type="int" >       36 </v>
  <v type="int" >      133 </v>
  <v type="int" >      100 </v>
  <v type="int" >       65 </v>
  <v type="int" >       73 </v>
  <v type="int" >      104 </v>
  <v type="int" >       14 </v>
  <v type="int" >      107 </v>
  <v type="int" >      138 </v>
  <v type="int" >      143 </v>
  <v type="int" >      108 </v>
  <v type="int" >       17 </v>
  <v type="int" >      122 </v>
  <v type="int" >       13 </v>
  <v type="int" >      120 </v>
  <v type="int" >       66 </v>
  <v type="int" >      130 </v>
  <v type="int" >      142 </v>
  <v type="int" >      124 </v>
  <v type="int" >      150 </v>
  <v type="int" >      121 </v>
  <v type="int" >      149 </v>
  <v type="int" >      119 </v>
  <v type="int" >       82 </v>
  <v type="int" >       53 </v>
  <v type="int" >      123 </v>
  <v type="int" >       48 </v>
  <v type="int" >      162 </v>
  <v type="int" >       51 </v>
  <v type="int" >       47 </v>
  <v type="int" >       25 </v>
  <v type="int" >       21 </v>
  <v type="int" >      117 </v>
  <v type="int" >       54 </v>
  <v type="int" >       26 </v>
  <v type="int" >       50 </v>
  <v type="int" >       81 </v>
  <v type="int" >       87 </v>
  <v type="int" >       52 </v>
  <v type="int" >       49 </v>
  <v type="int" >      160 </v>
  <v type="int" >      115 </v>
  <v type="int" >      141 </v>
  <v type="int" >      125 </v>
  <v type="int" >      118 </v>
  <v type="int" >       88 </v>
  <v type="int" >      153 </v>
  <v type="int" >      116 </v>
  <v type="int" >       20 </v>
  <v type="int" >       18 </v>
  <v type="int" >      152 </v>
  <v type="int" >       19 </v>
  <v type="int" >      126 </v>
  <v type="int" >       79 </v>
  <v type="int" >      144 </v>
  <v type="int" >      102 </v>
  <v type="int" >       72 </v>
  <v type="int" >      161 </v>
  <v type="int" >      137 </v>
  <v type="int" >       15 </v>
  <v type="int" >       46 </v>
  <v type="int" >      151 </v>
  <v type="int" >      132 </v>
  <v type="int" >       23 </v>
  <v type="int" >       22 </v>
  <v type="int" >       27 </v>
  <v type="int" >       80 </v>
  <v type="int" >       98 </v>
  <v type="int" >       44 </v>
  <v type="int" >       34 </v>
  <v type="int" >      106 </v>
  <v type="int" >       83 </v>
  <v type="int" >       71 </v>
  <v type="int" >      101 </v>
  <v type="int" >       45 </v>
  <v type="int" >       85 </v>
  <v type="int" >      129 </v>
  <v type="int" >       62 </v>
  <v type="int" >       97 </v>
  <v type="int" >       75 </v>
  <v type="int" >      148 </v>
  <v type="int" >      113 </v>
  <v type="int" >      111 </v>
  <v type="int" >       89 </v>
  <v type="int" >       16 </v>
  <v type="int" >       86 </v>
  <v type="int" >       24 </v>
  <v type="int" >       84 </v>
  <v type="int" >       43 </v>
  <v type="int" >      105 </v>
  <v type="int" >       76 </v>
  <v type="int" >       12 </v>
  <v type="int" >      140 </v>
  <v type="int" >       41 </v>
  <v type="int" >       37 </v>
  <v type="int" >      135 </v>
  <v type="int" >       61 </v>
  <v type="int" >      134 </v>
  <v type="int" >       90 </v>
  <v type="int" >      159 </v>
  <v type="int" >      114 </v>
  <v type="int" >       64 </v>
  <v type="int" >      112 </v>
  <v type="int" >       33 </v>
  <v type="int" >      109 </v>
  <v type="int" >       68 </v>
  <v type="int" >       40 </v>
  <v type="int" >        9 </v>
  <v type="int" >        5 </v>
  <v type="int" >      131 </v>
  <v type="int" >      136 </v>
  <v type="int" >       70 </v>
  <v type="int" >       60 </v>
  <v type="int" >       96 </v>
  <v type="int" >      147 </v>
  <v type="int" >      139 </v>
  <v type="int" >       67 </v>
  <v type="int" >      110 </v>
  <v type="int" >       10 </v>
  <v type="int" >       63 </v>
  <v type="int" >       94 </v>
  <v type="int" >      154 </v>
  <v type="int" >        7 </v>
  <v type="int" >      128 </v>
  <v type="int" >       11 </v>
  <v type="int" >      145 </v>
  <v type="int" >       29 </v>
  <v type="int" >       59 </v>
  <v type="int" >       69 </v>
  <v type="int" >       30 </v>
  <v type="int" >      156 </v>
  <v type="int" >      157 </v>
  <v type="int" >        6 </v>
  <v type="int" >       31 </v>
  <v type="int" >       91 </v>
  <v type="int" >       92 </v>
  <v type="int" >       95 </v>
  <v type="int" >       93 </v>
  <v type="int" >       28 </v>
  <v type="int" >        4 </v>
  <v type="int" >       32 </v>
 </varray>
 <kpoints>
  <generation param="Gamma">
   <v type="int" name="divisions">       1        1        1 </v>
   <v name="usershift">      0.00000000       0.00000000       0.00000000 </v>
   <v name="genvec1">      1.00000000      -0.00000000       0.00000000 </v>
   <v name="genvec2">     -0.00000000       1.00000000       0.00000000 </v>
   <v name="genvec3">      0.00000000       0.00000000       1.00000000 </v>
   <v name="shift">      0.00000000       0.00000000       0.00000000 </v>
  </generation>
  <varray name="kpointlist" >
   <v>       0.00000000       0.00000000       0.00000000 </v>
  </varray>
  <varray name="weights" >
   <v>       1.00000000 </v>
  </varray>
 </kpoints>
 <parameters>
  <separator name="general" >
   <i type="string" name="SYSTEM">Co–organic framework</i>
   <i type="logical" name="LCOMPAT"> F  </i>
  </separator>
  <separator name="electronic" >
   <i type="string" name="PREC">accura</i>
   <i name="ENMAX">    520.00000000</i>
   <i name="ENAUG">   1213.93000000</i>
   <i name="EDIFF">      0.00000100</i>
   <i type="int" name="IALGO">    68</i>
   <i type="int" name="IWAVPR">    11</i>
   <i type="int" name="NBANDS">   540</i>
   <i name="NELECT">    792.00000000</i>
   <i type="int" name="TURBO">     0</i>
   <i type="int" name="IRESTART">     0</i>
   <i type="int" name="NREBOOT">     0</i>
   <i type="int" name="NMIN">     0</i>
   <i name="EREF">      0.00000000</i>
   <separator name="electronic smearing" >
    <i type="int" name="ISMEAR">     0</i>
    <i name="SIGMA">      0.05000000</i>
    <i name="KSPACING">      0.50000000</i>
    <i type="logical" name="KGAMMA"> T  </i>
   </separator>
   <separator name="electronic projectors" >
    <i type="logical" name="LREAL"> T  </i>
    <v name="ROPT">     -0.00025000     -0.00025000     -0.00025000     -0.00025000</v>
    <i type="int" name="LMAXPAW">  -100</i>
    <i type="int" name="LMAXMIX">     2</i>
    <i type="logical" name="NLSPLINE"> F  </i>
   </separator>
   <separator name="electronic startup" >
    <i type="int" name="ISTART">     0</i>
    <i type="int" name="ICHARG">     2</i>
    <i type="int" name="INIWAV">     1</i>
   </separator>
   <separator name="electronic spin" >
    <i type="int" name="ISPIN">     2</i>
    <i type="logical" name="LNONCOLLINEAR"> F  </i>
    <v name="MAGMOM">      0.60000000      0.60000000      0.60000000      0.60000000      0.60000000      0.60000000      0.60000000      0.60000000      0.60000000      0.60000000      0.60000000      0.60000000      0.60000000      0.60000000      0.60000000      0.60000000      0.60000000      0.60000000      0.60000000      0.60000000
      0.60000000      0.60000000      0.60000000      0.60000000      0.60000000      0.60000000      0.60000000      0.60000000      0.60000000      0.60000000      0.60000000      0.60000000      0.60000000      0.60000000      0.60000000      0.60000000      0.60000000      0.60000000      0.60000000      0.60000000
      0.60000000      0.60000000      0.60000000      0.60000000      0.60000000      0.60000000      0.60000000      0.60000000      0.60000000      0.60000000      0.60000000      0.60000000      0.60000000      0.60000000      0.00000000      0.00000000      0.00000000      0.00000000      0.00000000      0.00000000
      0.00000000      0.00000000      0.00000000      0.00000000      0.00000000      0.00000000      0.00000000      0.00000000      0.00000000      0.00000000      0.00000000      0.00000000      0.00000000      0.00000000      0.00000000      0.00000000      0.00000000      0.00000000      0.00000000      0.00000000
      0.00000000      0.00000000      0.00000000      0.00000000      0.00000000      0.00000000      0.00000000      0.00000000      0.00000000      0.00000000      0.00000000      0.00000000      0.00000000      0.00000000      0.00000000      0.00000000      0.00000000      0.00000000      0.00000000      0.00000000
      0.00000000      0.00000000      0.00000000      0.00000000      0.00000000      0.00000000      0.00000000      0.00000000      0.00000000      0.00000000      0.00000000      0.00000000      0.00000000      0.00000000      0.00000000      0.00000000      0.00000000      0.00000000      0.00000000      0.00000000
      0.00000000      0.00000000      0.00000000      0.00000000      0.00000000      0.00000000      0.00000000      0.00000000      0.00000000      0.00000000      0.00000000      0.00000000      0.00000000      0.00000000      0.00000000      0.00000000      0.00000000      0.00000000      0.00000000      0.00000000
      0.00000000      0.00000000      0.00000000      0.00000000      5.00000000      5.00000000      5.00000000      5.00000000      5.00000000      5.00000000      5.00000000      5.00000000      5.00000000      5.00000000      5.00000000      5.00000000      5.00000000      5.00000000      5.00000000      5.00000000
      5.00000000      5.00000000</v>
    <i name="NUPDOWN">     -1.00000000</i>
    <i type="logical" name="LSORBIT"> F  </i>
    <v name="SAXIS">      0.00000000      0.00000000      1.00000000</v>
    <i type="logical" name="LSPIRAL"> F  </i>
    <v name="QSPIRAL">      0.00000000      0.00000000      0.00000000</v>
    <i type="logical" name="LZEROZ"> F  </i>
   </separator>
   <separator name="electronic exchange-correlation" >
    <i type="logical" name="LASPH"> F  </i>
    <i type="logical" name="LMETAGGA"> F  </i>
   </separator>
   <separator name="electronic convergence" >
    <i type="int" name="NELM">   120</i>
    <i type="int" name="NELMDL">     0</i>
    <i type="int" name="NELMIN">     5</i>
    <i name="ENINI">    520.00000000</i>
    <separator name="electronic convergence detail" >
     <i type="logical" name="LDIAG"> T  </i>
     <i type="logical" name="LSUBROT"> F  </i>
     <i name="WEIMIN">      0.00100000</i>
     <i name="EBREAK">      0.00000000</i>
     <i name="DEPER">      0.30000000</i>
     <i type="int" name="NRMM">     4</i>
     <i name="TIME">      0.40000000</i>
    </separator>
   </separator>
   <separator name="electronic mixer" >
    <i name="AMIX">      0.40000000</i>
    <i name="BMIX">      1.00000000</i>
    <i name="AMIN">      0.10000000</i>
    <i name="AMIX_MAG">      1.60000000</i>
    <i name="BMIX_MAG">      1.00000000</i>
    <separator name="electronic mixer details" >
     <i type="int" name="IMIX">     4</i>
     <i type="logical" name="MIXFIRST"> F  </i>
     <i type="int" name="MAXMIX">   -45</i>
     <i name="WC">    100.00000000</i>
     <i type="int" name="INIMIX">     1</i>
     <i type="int" name="MIXPRE">     1</i>
     <i type="int" name="MREMOVE">     5</i>
    </separator>
   </separator>
   <separator name="electronic dipolcorrection" >
    <i type="logical" name="LDIPOL"> F  </i>
    <i type="logical" name="LMONO"> F  </i>
    <i type="int" name="IDIPOL">     0</i>
    <i name="EPSILON">      1.00000000</i>
    <v name="DIPOL">   -100.00000000   -100.00000000   -100.00000000</v>
    <i name="EFIELD">      0.00000000</i>
   </separator>
  </separator>
  <separator name="grids" >
   <i type="int" name="NGX">   196</i>
   <i type="int" name="NGY">   196</i>
   <i type="int" name="NGZ">    54</i>
   <i type="int" name="NGXF">   392</i>
   <i type="int" name="NGYF">   392</i>
   <i type="int" name="NGZF">   108</i>
   <i type="logical" name="ADDGRID"> F  </i>
  </separator>
  <separator name="ionic" >
   <i type="int" name="NSW">  1000</i>
   <i type="int" name="IBRION">     2</i>
   <i type="int" name="MDALGO">     0</i>
   <i type="int" name="ISIF">     3</i>
   <i name="PSTRESS">      0.00000000</i>
   <i name="EDIFFG">     -0.00500000</i>
   <i type="int" name="NFREE">     1</i>
   <i name="POTIM">      0.50000000</i>
   <i name="SMASS">     -3.00000000</i>
   <i name="SCALEE">      1.00000000</i>
  </separator>
  <separator name="ionic md" >
   <i name="TEBEG">      0.00010000</i>
   <i name="TEEND">      0.00010000</i>
   <i type="int" name="NBLOCK">     1</i>
   <i type="int" name="KBLOCK">  1000</i>
   <i type="int" name="NPACO">   256</i>
   <i name="APACO">     16.00000000</i>
  </separator>
  <separator name="symmetry" >
   <i type="int" name="ISYM">     0</i>
   <i name="SYMPREC">      0.00001000</i>
  </separator>
  <separator name="dos" >
   <i type="int" name="LORBIT">     0</i>
   <v name="RWIGS">     -1.00000000     -1.00000000     -1.00000000     -1.00000000</v>
   <i type="int" name="NEDOS">   301</i>
   <i name="EMIN">     10.00000000</i>
   <i name="EMAX">    -10.00000000</i>
   <i name="EFERMI">      0.00000000</i>
  </separator>
  <separator name="writing" >
   <i type="int" name="NWRITE">     2</i>
   <i type="logical" name="LWAVE"> F  </i>
   <i type="logical" name="LDOWNSAMPLE"> F  </i>
   <i type="logical" name="LCHARG"> T  </i>
   <i type="logical" name="LPARD"> F  </i>
   <i type="logical" name="LVTOT"> F  </i>
   <i type="logical" name="LVHAR"> F  </i>
   <i type="logical" name="LELF"> F  </i>
   <i type="logical" name="LOPTICS"> F  </i>
   <v name="STM">      0.00000000      0.00000000      0.00000000      0.00000000      0.00000000      0.00000000      0.00000000</v>
  </separator>
  <separator name="performance" >
   <i type="int" name="NPAR">     6</i>
   <i type="int" name="NSIM">     4</i>
   <i type="int" name="NBLK">    -1</i>
   <i type="logical" name="LPLANE"> T  </i>
   <i type="logical" name="LSCALAPACK"> F  </i>
   <i type="logical" name="LSCAAWARE"> F  </i>
   <i type="logical" name="LSCALU"> F  </i>
   <i type="logical" name="LASYNC"> F  </i>
   <i type="logical" name="LORBITALREAL"> F  </i>
  </separator>
  <separator name="miscellaneous" >
   <i type="int" name="IDIOT">     3</i>
   <i type="int" name="ISPECIAL">     0</i>
   <i type="logical" name="LMUSIC"> F  </i>
   <v name="POMASS">     16.00000000     12.01100000      1.00000000     58.93300000</v>
   <v name="DARWINR">      0.00000000      0.00000000      0.00000000      0.00000000</v>
   <v name="DARWINV">      1.00000000      1.00000000      1.00000000      1.00000000</v>
   <i type="logical" name="LCORR"> T  </i>
  </separator>
  <i type="logical" name="GGA_COMPAT"> T  </i>
  <i type="logical" name="LBERRY"> F  </i>
  <i type="int" name="ICORELEVEL">     0</i>
  <i type="logical" name="LDAU"> F  </i>
  <i type="int" name="I_CONSTRAINED_M">     0</i>
  <separator name="electronic exchange-correlation" >
   <i type="string" name="GGA">--</i>
   <i type="int" name="VOSKOWN">     0</i>
   <i type="logical" name="LHFCALC"> F  </i>
   <i type="string" name="PRECFOCK"></i>
   <i type="logical" name="LSYMGRAD"> F  </i>
   <i type="logical" name="LHFONE"> F  </i>
   <i type="logical" name="LRHFCALC"> F  </i>
   <i type="logical" name="LTHOMAS"> F  </i>
   <i type="logical" name="LMODELHF"> F  </i>
   <i name="ENCUT4O">     -1.00000000</i>
   <i type="int" name="EXXOEP">     0</i>
   <i type="int" name="FOURORBIT">     0</i>
   <i name="AEXX">      0.00000000</i>
   <i name="HFALPHA">      0.00000000</i>
   <i name="MCALPHA">      0.00000000</i>
   <i name="ALDAX">      1.00000000</i>
   <i name="AGGAX">      1.00000000</i>
   <i name="ALDAC">      1.00000000</i>
   <i name="AGGAC">      1.00000000</i>
   <i type="int" name="NKREDX">     1</i>
   <i type="int" name="NKREDY">     1</i>
   <i type="int" name="NKREDZ">     1</i>
   <i type="logical" name="SHIFTRED"> F  </i>
   <i type="logical" name="ODDONLY"> F  </i>
   <i type="logical" name="EVENONLY"> F  </i>
   <i type="int" name="LMAXFOCK">     0</i>
   <i type="int" name="NMAXFOCKAE">     0</i>
   <i type="logical" name="LFOCKAEDFT"> F  </i>
   <i name="HFSCREEN">      0.00000000</i>
   <i name="HFSCREENC">      0.00000000</i>
   <i type="int" name="NBANDSGWLOW">     0</i>
  </separator>
  <separator name="vdW DFT" >
   <i type="logical" name="LUSE_VDW"> F  </i>
   <i name="Zab_VDW">     -0.84910000</i>
   <i name="PARAM1">      0.12340000</i>
   <i name="PARAM2">      1.00000000</i>
   <i name="PARAM3">      0.00000000</i>
  </separator>
  <separator name="model GW" >
   <i type="int" name="MODEL_GW">     0</i>
   <i name="MODEL_EPS0">     14.77837991</i>
   <i name="MODEL_ALPHA">      1.00000000</i>
  </separator>
  <separator name="linear response parameters" >
   <i type="logical" name="LEPSILON"> F  </i>
   <i type="logical" name="LRPA"> F  </i>
   <i type="logical" name="LNABLA"> F  </i>
   <i type="logical" name="LVEL"> F  </i>
   <i type="int" name="KINTER">     0</i>
   <i name="CSHIFT">      0.10000000</i>
   <i name="OMEGAMAX">     -1.00000000</i>
   <i name="DEG_THRESHOLD">      0.00200000</i>
   <i name="RTIME">     -0.10000000</i>
   <i name="WPLASMAI">      0.00000000</i>
   <v name="DFIELD">      0.00000000      0.00000000      0.00000000</v>
   <v name="WPLASMA">      0.00000000      0.00000000      0.00000000      0.00000000      0.00000000      0.00000000      0.00000000      0.00000000      0.00000000</v>
  </separator>
  <separator name="orbital magnetization" >
   <i type="logical" name="NUCIND"> F  </i>
   <v name="MAGPOS">      0.00000000      0.00000000      0.00000000</v>
   <i type="logical" name="LNICSALL"> T  </i>
   <i type="logical" name="ORBITALMAG"> F  </i>
   <i type="logical" name="LMAGBLOCH"> F  </i>
   <i type="logical" name="LCHIMAG"> F  </i>
   <i type="logical" name="LGAUGE"> T  </i>
   <i type="int" name="MAGATOM">     0</i>
   <v name="MAGDIPOL">      0.00000000      0.00000000      0.00000000</v>
   <v name="AVECCONST">      0.00000000      0.00000000      0.00000000</v>
  </separator>
  <separator name="response functions" >
   <i type="logical" name="LADDER"> F  </i>
   <i type="logical" name="LRPAFORCE"> F  </i>
   <i type="logical" name="LFXC"> F  </i>
   <i type="logical" name="LHARTREE"> T  </i>
   <i type="int" name="IBSE">     0</i>
   <v type="int" name="KPOINT">    -1     0     0     0</v>
   <i type="logical" name="LTCTE"> F  </i>
   <i type="logical" name="LTETE"> F  </i>
   <i type="logical" name="LTRIPLET"> F  </i>
   <i type="logical" name="LFXCEPS"> F  </i>
   <i type="logical" name="LFXHEG"> F  </i>
   <i type="int" name="NATURALO">     2</i>
   <i type="logical" name="L2ORDER"> F  </i>
   <i type="logical" name="LMP2LT"> F  </i>
   <i type="logical" name="LUSEW"> F  </i>
   <i name="ENCUTGW">     -2.00000000</i>
   <i name="ENCUTGWSOFT">     -2.00000000</i>
   <i name="ENCUTLF">     -1.00000000</i>
   <i type="int" name="LMAXMP2">    -1</i>
   <i name="SCISSOR">      0.00000000</i>
   <i type="int" name="NOMEGA">     0</i>
   <i type="int" name="NOMEGAR">     0</i>
   <i type="int" name="NBANDSGW">    -1</i>
   <i type="int" name="NBANDSO">    -1</i>
   <i type="int" name="NBANDSV">    -1</i>
   <i type="int" name="NELM">   120</i>
   <i type="int" name="NELMHF">     1</i>
   <i type="int" name="DIM">     3</i>
   <i type="int" name="ANTIRES">     0</i>
   <i name="OMEGAMAX">    -30.00000000</i>
   <i name="OMEGAMIN">    -30.00000000</i>
   <i name="OMEGATL">   -200.00000000</i>
   <i type="int" name="OMEGAGRID">   140</i>
   <i name="CSHIFT">     -0.10000000</i>
   <i type="logical" name="SELFENERGY"> F  </i>
   <i type="logical" name="LSPECTRAL"> F  </i>
   <i type="logical" name="LSPECTRALGW"> F  </i>
   <i type="logical" name="LSINGLES"> F  </i>
   <i type="logical" name="LFERMIGW"> F  </i>
   <i type="logical" name="ODDONLYGW"> F  </i>
   <i type="logical" name="EVENONLYGW"> F  </i>
   <i type="int" name="NKREDLFX">     1</i>
   <i type="int" name="NKREDLFY">     1</i>
   <i type="int" name="NKREDLFZ">     1</i>
   <i type="int" name="MAXMEM">  2800</i>
   <i type="int" name="TELESCOPE">     0</i>
   <i type="int" name="TAUPAR">     1</i>
   <i type="int" name="OMEGAPAR">    -1</i>
   <i name="LAMBDA">      1.00000000</i>
  </separator>
  <separator name="External order field" >
   <i name="OFIELD_KAPPA">      0.00000000</i>
   <v name="OFIELD_K">      0.00000000      0.00000000      0.00000000</v>
   <i name="OFIELD_Q6_NEAR">      0.00000000</i>
   <i name="OFIELD_Q6_FAR">      0.00000000</i>
   <i name="OFIELD_A">      0.00000000</i>
  </separator>
  <separator name="solvation model" >
   <i type="logical" name="LSOL"> F  </i>
  </separator>
 </parameters>
 <atominfo>
  <atoms>     162 </atoms>
  <types>       4 </types>
  <array name="atoms" >
   <dimension dim="1">ion</dimension>
   <field type="string">element</field>
   <field type="int">atomtype</field>
   <set>
    <rc><c>O </c><c>   1</c></rc>
    <rc><c>O </c><c>   1</c></rc>
    <rc><c>O </c><c>   1</c></rc>
    <rc><c>O </c><c>   1</c></rc>
    <rc><c>O </c><c>   1</c></rc>
    <rc><c>O </c><c>   1</c></rc>
    <rc><c>O </c><c>   1</c></rc>
    <rc><c>O </c><c>   1</c></rc>
    <rc><c>O </c><c>   1</c></rc>
    <rc><c>O </c><c>   1</c></rc>
    <rc><c>O </c><c>   1</c></rc>
    <rc><c>O </c><c>   1</c></rc>
    <rc><c>O </c><c>   1</c></rc>
    <rc><c>O </c><c>   1</c></rc>
    <rc><c>O </c><c>   1</c></rc>
    <rc><c>O </c><c>   1</c></rc>
    <rc><c>O </c><c>   1</c></rc>
    <rc><c>O </c><c>   1</c></rc>
    <rc><c>O </c><c>   1</c></rc>
    <rc><c>O </c><c>   1</c></rc>
    <rc><c>O </c><c>   1</c></rc>
    <rc><c>O </c><c>   1</c></rc>
    <rc><c>O </c><c>   1</c></rc>
    <rc><c>O </c><c>   1</c></rc>
    <rc><c>O </c><c>   1</c></rc>
    <rc><c>O </c><c>   1</c></rc>
    <rc><c>O </c><c>   1</c></rc>
    <rc><c>O </c><c>   1</c></rc>
    <rc><c>O </c><c>   1</c></rc>
    <rc><c>O </c><c>   1</c></rc>
    <rc><c>O </c><c>   1</c></rc>
    <rc><c>O </c><c>   1</c></rc>
    <rc><c>O </c><c>   1</c></rc>
    <rc><c>O </c><c>   1</c></rc>
    <rc><c>O </c><c>   1</c></rc>
    <rc><c>O </c><c>   1</c></rc>
    <rc><c>O </c><c>   1</c></rc>
    <rc><c>O </c><c>   1</c></rc>
    <rc><c>O </c><c>   1</c></rc>
    <rc><c>O </c><c>   1</c></rc>
    <rc><c>O </c><c>   1</c></rc>
    <rc><c>O </c><c>   1</c></rc>
    <rc><c>O </c><c>   1</c></rc>
    <rc><c>O </c><c>   1</c></rc>
    <rc><c>O </c><c>   1</c></rc>
    <rc><c>O </c><c>   1</c></rc>
    <rc><c>O </c><c>   1</c></rc>
    <rc><c>O </c><c>   1</c></rc>
    <rc><c>O </c><c>   1</c></rc>
    <rc><c>O </c><c>   1</c></rc>
    <rc><c>O </c><c>   1</c></rc>
    <rc><c>O </c><c>   1</c></rc>
    <rc><c>O </c><c>   1</c></rc>
    <rc><c>O </c><c>   1</c></rc>
    <rc><c>C </c><c>   2</c></rc>
    <rc><c>C </c><c>   2</c></rc>
    <rc><c>C </c><c>   2</c></rc>
    <rc><c>C </c><c>   2</c></rc>
    <rc><c>C </c><c>   2</c></rc>
    <rc><c>C </c><c>   2</c></rc>
    <rc><c>C </c><c>   2</c></rc>
    <rc><c>C </c><c>   2</c></rc>
    <rc><c>C </c><c>   2</c></rc>
    <rc><c>C </c><c>   2</c></rc>
    <rc><c>C </c><c>   2</c></rc>
    <rc><c>C </c><c>   2</c></rc>
    <rc><c>C </c><c>   2</c></rc>
    <rc><c>C </c><c>   2</c></rc>
    <rc><c>C </c><c>   2</c></rc>
    <rc><c>C </c><c>   2</c></rc>
    <rc><c>C </c><c>   2</c></rc>
    <rc><c>C </c><c>   2</c></rc>
    <rc><c>C </c><c>   2</c></rc>
    <rc><c>C </c><c>   2</c></rc>
    <rc><c>C </c><c>   2</c></rc>
    <rc><c>C </c><c>   2</c></rc>
    <rc><c>C </c><c>   2</c></rc>
    <rc><c>C </c><c>   2</c></rc>
    <rc><c>C </c><c>   2</c></rc>
    <rc><c>C </c><c>   2</c></rc>
    <rc><c>C </c><c>   2</c></rc>
    <rc><c>C </c><c>   2</c></rc>
    <rc><c>C </c><c>   2</c></rc>
    <rc><c>C </c><c>   2</c></rc>
    <rc><c>C </c><c>   2</c></rc>
    <rc><c>C </c><c>   2</c></rc>
    <rc><c>C </c><c>   2</c></rc>
    <rc><c>C </c><c>   2</c></rc>
    <rc><c>C </c><c>   2</c></rc>
    <rc><c>C </c><c>   2</c></rc>
    <rc><c>C </c><c>   2</c></rc>
    <rc><c>C </c><c>   2</c></rc>
    <rc><c>C </c><c>   2</c></rc>
    <rc><c>C </c><c>   2</c></rc>
    <rc><c>C </c><c>   2</c></rc>
    <rc><c>C </c><c>   2</c></rc>
    <rc><c>C </c><c>   2</c></rc>
    <rc><c>C </c><c>   2</c></rc>
    <rc><c>C </c><c>   2</c></rc>
    <rc><c>C </c><c>   2</c></rc>
    <rc><c>C </c><c>   2</c></rc>
    <rc><c>C </c><c>   2</c></rc>
    <rc><c>C </c><c>   2</c></rc>
    <rc><c>C </c><c>   2</c></rc>
    <rc><c>C </c><c>   2</c></rc>
    <rc><c>C </c><c>   2</c></rc>
    <rc><c>C </c><c>   2</c></rc>
    <rc><c>C </c><c>   2</c></rc>
    <rc><c>C </c><c>   2</c></rc>
    <rc><c>C </c><c>   2</c></rc>
    <rc><c>C </c><c>   2</c></rc>
    <rc><c>C </c><c>   2</c></rc>
    <rc><c>C </c><c>   2</c></rc>
    <rc><c>C </c><c>   2</c></rc>
    <rc><c>C </c><c>   2</c></rc>
    <rc><c>C </c><c>   2</c></rc>
    <rc><c>C </c><c>   2</c></rc>
    <rc><c>C </c><c>   2</c></rc>
    <rc><c>C </c><c>   2</c></rc>
    <rc><c>C </c><c>   2</c></rc>
    <rc><c>C </c><c>   2</c></rc>
    <rc><c>C </c><c>   2</c></rc>
    <rc><c>C </c><c>   2</c></rc>
    <rc><c>C </c><c>   2</c></rc>
    <rc><c>C </c><c>   2</c></rc>
    <rc><c>C </c><c>   2</c></rc>
    <rc><c>H </c><c>   3</c></rc>
    <rc><c>H </c><c>   3</c></rc>
    <rc><c>H </c><c>   3</c></rc>
    <rc><c>H </c><c>   3</c></rc>
    <rc><c>H </c><c>   3</c></rc>
    <rc><c>H </c><c>   3</c></rc>
    <rc><c>H </c><c>   3</c></rc>
    <rc><c>H </c><c>   3</c></rc>
    <rc><c>H </c><c>   3</c></rc>
    <rc><c>H </c><c>   3</c></rc>
    <rc><c>H </c><c>   3</c></rc>
    <rc><c>H </c><c>   3</c></rc>
    <rc><c>H </c><c>   3</c></rc>
    <rc><c>H </c><c>   3</c></rc>
    <rc><c>H </c><c>   3</c></rc>
    <rc><c>H </c><c>   3</c></rc>
    <rc><c>H </c><c>   3</c></rc>
    <rc><c>H </c><c>   3</c></rc>
    <rc><c>Co</c><c>   4</c></rc>
    <rc><c>Co</c><c>   4</c></rc>
    <rc><c>Co</c><c>   4</c></rc>
    <rc><c>Co</c><c>   4</c></rc>
    <rc><c>Co</c><c>   4</c></rc>
    <rc><c>Co</c><c>   4</c></rc>
    <rc><c>Co</c><c>   4</c></rc>
    <rc><c>Co</c><c>   4</c></rc>
    <rc><c>Co</c><c>   4</c></rc>
    <rc><c>Co</c><c>   4</c></rc>
    <rc><c>Co</c><c>   4</c></rc>
    <rc><c>Co</c><c>   4</c></rc>
    <rc><c>Co</c><c>   4</c></rc>
    <rc><c>Co</c><c>   4</c></rc>
    <rc><c>Co</c><c>   4</c></rc>
    <rc><c>Co</c><c>   4</c></rc>
    <rc><c>Co</c><c>   4</c></rc>
    <rc><c>Co</c><c>   4</c></rc>
   </set>
  </array>
  <array name="atomtypes" >
   <dimension dim="1">type</dimension>
   <field type="int">atomspertype</field>
   <field type="string">element</field>
   <field>mass</field>
   <field>valence</field>
   <field type="string">pseudopotential</field>
   <set>
    <rc><c>  54</c><c>O </c><c>     16.00000000</c><c>      6.00000000</c><c>  PAW_PBE O_GW_new 19Mar2012            </c></rc>
    <rc><c>  72</c><c>C </c><c>     12.01100000</c><c>      4.00000000</c><c>  PAW_PBE C_GW_new 19Mar2012            </c></rc>
    <rc><c>  18</c><c>H </c><c>      1.00000000</c><c>      1.00000000</c><c>  PAW_PBE H_h_GW 21Apr2008              </c></rc>
    <rc><c>  18</c><c>Co</c><c>     58.93300000</c><c>      9.00000000</c><c>  PAW_PBE Co_GW 31Mar2010               </c></rc>
   </set>
  </array>
 </atominfo>
 <structure name="initialpos" >
  <crystal>
   <varray name="basis" >
    <v>      25.99329048       0.00020217      -0.00072687 </v>
    <v>      12.99682004      22.50962438      -0.00076847 </v>
    <v>      -0.00019043      -0.00012384       6.81966488 </v>
   </varray>
   <i name="volume">   3990.16257547 </i>
   <varray name="rec_basis" >
    <v>       0.03847164      -0.02221312       0.00000067 </v>
    <v>      -0.00000035       0.04442564       0.00000081 </v>
    <v>       0.00000410       0.00000264       0.14663477 </v>
   </varray>
  </crystal>
  <varray name="positions" >
   <v>       0.06153710       0.25191918       0.32245016 </v>
   <v>       0.03787767       0.29639774       0.96051563 </v>
   <v>       0.10611777       0.25660523       0.72543868 </v>
   <v>       0.39355649       0.58455268       0.65490139 </v>
   <v>       0.68909040       0.05942225       0.32268272 </v>
   <v>       0.66802218       0.03582133       0.96145712 </v>
   <v>       0.63987013       0.10386230       0.72573001 </v>
   <v>       0.02443112       0.39150413       0.65548642 </v>
   <v>       0.25409099       0.68748962       0.32192457 </v>
   <v>       0.29841724       0.66687697       0.95935862 </v>
   <v>       0.25868753       0.63820128       0.72484705 </v>
   <v>       0.58717750       0.02163614       0.65574746 </v>
   <v>       0.30013763       0.03431034       0.37609306 </v>
   <v>       0.23200800       0.07423967       0.61149731 </v>
   <v>       0.63373534       0.36912666       0.70921121 </v>
   <v>       0.56550109       0.40850568       0.94454519 </v>
   <v>       0.27648133       0.07883025       0.01444946 </v>
   <v>       0.66864403       0.29779772       0.37538468 </v>
   <v>       0.69655822       0.22982263       0.61126017 </v>
   <v>       0.99970992       0.63169191       0.71005057 </v>
   <v>       0.02868259       0.56336502       0.94506230 </v>
   <v>       0.64758378       0.27418929       0.01418952 </v>
   <v>       0.03686406       0.66584549       0.37643241 </v>
   <v>       0.07664560       0.69432110       0.61146563 </v>
   <v>       0.37140801       0.99743050       0.70971915 </v>
   <v>       0.41093851       0.02612119       0.94501862 </v>
   <v>       0.08126992       0.64513814       0.01446523 </v>
   <v>       0.70304479       0.96460253       0.62796229 </v>
   <v>       0.77111006       0.92476020       0.39228006 </v>
   <v>       0.36956271       0.62891254       0.29236897 </v>
   <v>       0.43800758       0.58951989       0.05783459 </v>
   <v>       0.72676618       0.92001363       0.98927927 </v>
   <v>       0.33635846       0.70016046       0.62586595 </v>
   <v>       0.30762984       0.76858257       0.39138462 </v>
   <v>       0.00394270       0.36754261       0.29348458 </v>
   <v>       0.97502090       0.43587314       0.05853367 </v>
   <v>       0.35683200       0.72397501       0.98839715 </v>
   <v>       0.96667694       0.33351568       0.62706510 </v>
   <v>       0.92683194       0.30514632       0.39191587 </v>
   <v>       0.63174688       0.00100661       0.29437499 </v>
   <v>       0.59235626       0.97220613       0.05890069 </v>
   <v>       0.92219089       0.35424216       0.98894517 </v>
   <v>       0.94193415       0.74737512       0.68120954 </v>
   <v>       0.96563297       0.70281520       0.04296065 </v>
   <v>       0.89744633       0.74257417       0.27824997 </v>
   <v>       0.60981643       0.41365069       0.34768582 </v>
   <v>       0.31375087       0.93942258       0.68103011 </v>
   <v>       0.33451639       0.96313035       0.04282124 </v>
   <v>       0.36317807       0.89486603       0.27792762 </v>
   <v>       0.97923696       0.60771900       0.34814831 </v>
   <v>       0.74950303       0.31174744       0.68090681 </v>
   <v>       0.70487422       0.33269774       0.04216184 </v>
   <v>       0.74460695       0.36105709       0.27782021 </v>
   <v>       0.41596386       0.97680624       0.34799910 </v>
   <v>       0.11319123       0.21057620       0.24275496 </v>
   <v>       0.15439263       0.16527799       0.36409358 </v>
   <v>       0.08939901       0.25645575       0.90022015 </v>
   <v>       0.12870285       0.21011651       0.04128479 </v>
   <v>       0.44547066       0.54367769       0.57534471 </v>
   <v>       0.48709011       0.49875703       0.69682797 </v>
   <v>       0.67880442       0.11106439       0.24293908 </v>
   <v>       0.68299199       0.15223564       0.36414345 </v>
   <v>       0.65662892       0.08723711       0.90064878 </v>
   <v>       0.66374187       0.12655078       0.04147112 </v>
   <v>       0.01335511       0.44344379       0.57599572 </v>
   <v>       0.01666481       0.48506244       0.69744954 </v>
   <v>       0.21278315       0.67711231       0.24231480 </v>
   <v>       0.16756047       0.68108967       0.36377885 </v>
   <v>       0.25854763       0.65513365       0.89954382 </v>
   <v>       0.21230777       0.66205895       0.04084490 </v>
   <v>       0.54631229       0.01056581       0.57622935 </v>
   <v>       0.50134121       0.01394846       0.69758874 </v>
   <v>       0.24866208       0.07431048       0.43658404 </v>
   <v>       0.20932179       0.12063598       0.29555208 </v>
   <v>       0.58206831       0.40871621       0.76961040 </v>
   <v>       0.54235148       0.45471449       0.62847540 </v>
   <v>       0.22482036       0.12017560       0.09409431 </v>
   <v>       0.18363121       0.16547220       0.97275412 </v>
   <v>       0.67992102       0.24642010       0.43624678 </v>
   <v>       0.67282024       0.20710671       0.29541161 </v>
   <v>       0.01182762       0.57999166       0.77020831 </v>
   <v>       0.00549646       0.54030736       0.62905342 </v>
   <v>       0.65779442       0.22257365       0.09393278 </v>
   <v>       0.65356397       0.18142465       0.97275014 </v>
   <v>       0.07675599       0.67751827       0.43662508 </v>
   <v>       0.12299566       0.67065747       0.29543155 </v>
   <v>       0.41110948       0.00934914       0.77008602 </v>
   <v>       0.45719629       0.00290146       0.62904206 </v>
   <v>       0.12253799       0.65559022       0.09399616 </v>
   <v>       0.16774229       0.65162700       0.97252426 </v>
   <v>       0.75452662       0.92467131       0.56727133 </v>
   <v>       0.79397092       0.87839688       0.70823319 </v>
   <v>       0.42130394       0.58932540       0.23260872 </v>
   <v>       0.46094063       0.54335747       0.37393408 </v>
   <v>       0.77849689       0.87879459       0.90966227 </v>
   <v>       0.81977489       0.83356707       0.03097615 </v>
   <v>       0.32451351       0.75181623       0.56612443 </v>
   <v>       0.33125786       0.79122007       0.70742771 </v>
   <v>       0.99186012       0.41923594       0.23339140 </v>
   <v>       0.99819910       0.45890853       0.37458818 </v>
   <v>       0.34632085       0.77571155       0.90885735 </v>
   <v>       0.35015443       0.81703947       0.03031810 </v>
   <v>       0.92674251       0.32191692       0.56679403 </v>
   <v>       0.88047005       0.32879961       0.70783791 </v>
   <v>       0.59211986       0.98900452       0.23383493 </v>
   <v>       0.54603090       0.99539874       0.37482007 </v>
   <v>       0.88090235       0.34383631       0.90931241 </v>
   <v>       0.83564405       0.34781712       0.03059252 </v>
   <v>       0.89023739       0.78862743       0.76094279 </v>
   <v>       0.84895515       0.83387475       0.63964846 </v>
   <v>       0.91412410       0.74272686       0.10341266 </v>
   <v>       0.87475340       0.78903510       0.96240469 </v>
   <v>       0.55783147       0.45443274       0.42712131 </v>
   <v>       0.51620565       0.49931080       0.30560550 </v>
   <v>       0.32440411       0.88763169       0.76057287 </v>
   <v>       0.32062349       0.84628679       0.63910074 </v>
   <v>       0.34630450       0.91154641       0.10312272 </v>
   <v>       0.33953204       0.87210095       0.96198023 </v>
   <v>       0.99033289       0.55577416       0.42765823 </v>
   <v>       0.98702518       0.51415623       0.30620689 </v>
   <v>       0.79070868       0.32228241       0.76055380 </v>
   <v>       0.83592858       0.31836188       0.63925232 </v>
   <v>       0.74477606       0.34427584       0.10290138 </v>
   <v>       0.79110496       0.33737625       0.96200429 </v>
   <v>       0.45689055       0.98776852       0.42760766 </v>
   <v>       0.50189678       0.98433583       0.30628124 </v>
   <v>       0.14301045       0.16516764       0.51791742 </v>
   <v>       0.47580081       0.49846385       0.85064013 </v>
   <v>       0.69448121       0.14086729       0.51797510 </v>
   <v>       0.02823185       0.47378543       0.85127225 </v>
   <v>       0.16746516       0.69257521       0.51759642 </v>
   <v>       0.50104912       0.02551152       0.85142679 </v>
   <v>       0.19502048       0.16558629       0.81894291 </v>
   <v>       0.64205069       0.19280226       0.81893983 </v>
   <v>       0.16784763       0.64012714       0.81872266 </v>
   <v>       0.80841653       0.83340132       0.18478658 </v>
   <v>       0.36168260       0.80566354       0.18410988 </v>
   <v>       0.83546849       0.35933828       0.18441840 </v>
   <v>       0.86031296       0.83403409       0.48582993 </v>
   <v>       0.52749927       0.49960123       0.15179632 </v>
   <v>       0.30909785       0.85765635       0.48530670 </v>
   <v>       0.97544979       0.52544254       0.15239329 </v>
   <v>       0.83608055       0.30686129       0.48541903 </v>
   <v>       0.50219949       0.97275872       0.15244952 </v>
   <v>       0.31448250       0.64104825       0.52533450 </v>
   <v>       0.04738363       0.31232034       0.52593860 </v>
   <v>       0.64314055       0.04498790       0.52628171 </v>
   <v>       0.02098403       0.69116808       0.81084460 </v>
   <v>       0.35554384       0.02269191       0.14440737 </v>
   <v>       0.29076755       0.01851924       0.81084580 </v>
   <v>       0.62447391       0.35328616       0.14402343 </v>
   <v>       0.69345583       0.28862005       0.81052538 </v>
   <v>       0.02514110       0.62221848       0.14460995 </v>
   <v>       0.64758963       0.97593216       0.85938720 </v>
   <v>       0.98250937       0.30818495       0.19259547 </v>
   <v>       0.37935615       0.64500021       0.85835199 </v>
   <v>       0.71221515       0.98030790       0.19292634 </v>
   <v>       0.97845132       0.37705762       0.85904967 </v>
   <v>       0.31055778       0.70994454       0.19196324 </v>
   <v>       0.68909932       0.35769323       0.47735417 </v>
   <v>       0.95620925       0.68693341       0.47772949 </v>
   <v>       0.35981069       0.95374502       0.47749508 </v>
  </varray>
 </structure>
 <calculation>
  <scstep>
   <time name="dav">   43.92   44.24</time>
   <time name="total">   45.48   45.81</time>
   <energy>
    <i name="alphaZ">    539.06252184 </i>
    <i name="ewald">  46032.32284996 </i>
    <i name="hartreedc"> -89314.28105649 </i>
    <i name="XCdc">   1933.10784458 </i>
    <i name="pawpsdc">  40586.55138172 </i>
    <i name="pawaedc"> -40553.98967278 </i>
    <i name="eentropy">     -0.07123343 </i>
    <i name="bandstr">    335.70324027 </i>
    <i name="atom">  48806.59250346 </i>
    <i name="e_fr_energy">   8364.99837914 </i>
    <i name="e_wo_entrp">   8365.06961257 </i>
    <i name="e_0_energy">   8365.03399586 </i>
   </energy>
  </scstep>
  <scstep>
   <time name="dav">   50.27   50.68</time>
   <time name="total">   50.27   50.68</time>
   <energy>
    <i name="e_fr_energy">    632.76715528 </i>
    <i name="e_wo_entrp">    632.82111512 </i>
    <i name="e_0_energy">    632.79413520 </i>
   </energy>
  </scstep>
  <scstep>
   <time name="dav">   65.54   66.08</time>
   <time name="total">   65.54   66.09</time>
   <energy>
    <i name="e_fr_energy">  -1285.88498495 </i>
    <i name="e_wo_entrp">  -1285.85755181 </i>
    <i name="e_0_energy">  -1285.87126838 </i>
   </energy>
  </scstep>
  <scstep>
   <time name="dav">   62.25   62.77</time>
   <time name="total">   62.25   62.77</time>
   <energy>
    <i name="e_fr_energy">  -1403.47704589 </i>
    <i name="e_wo_entrp">  -1403.47701276 </i>
    <i name="e_0_energy">  -1403.47702932 </i>
   </energy>
  </scstep>
  <scstep>
   <time name="dav">   65.79   66.33</time>
   <time name="total">   69.07   69.63</time>
   <energy>
    <i name="e_fr_energy">  -1408.41855926 </i>
    <i name="e_wo_entrp">  -1408.41853451 </i>
    <i name="e_0_energy">  -1408.41854689 </i>
   </energy>
  </scstep>
  <scstep>
   <time name="diag">    8.52    8.61</time>
   <time name="diis">   37.55   37.57</time>
   <time name="orth">    0.94    0.94</time>
   <time name="total">   51.83   51.99</time>
   <energy>
    <i name="e_fr_energy">  -1774.26965733 </i>
    <i name="e_wo_entrp">  -1774.13955532 </i>
    <i name="e_0_energy">  -1774.20460632 </i>
   </energy>
  </scstep>
  <scstep>
   <time name="diag">    8.52    8.57</time>
   <time name="diis">   30.56   30.58</time>
   <time name="orth">    0.94    0.94</time>
   <time name="total">   44.83   44.96</time>
   <energy>
    <i name="e_fr_energy">  -1562.80553837 </i>
    <i name="e_wo_entrp">  -1562.61704426 </i>
    <i name="e_0_energy">  -1562.71129132 </i>
   </energy>
  </scstep>
  <scstep>
   <time name="diag">    8.56    8.61</time>
   <time name="diis">   31.05   31.08</time>
   <time name="orth">    0.94    0.95</time>
   <time name="total">   45.34   45.48</time>
   <energy>
    <i name="e_fr_energy">  -1099.78112527 </i>
    <i name="e_wo_entrp">  -1099.72240260 </i>
    <i name="e_0_energy">  -1099.75176394 </i>
   </energy>
  </scstep>
  <scstep>
   <time name="diag">    8.52    8.58</time>
   <time name="diis">   33.76   33.78</time>
   <time name="orth">    0.93    0.95</time>
   <time name="total">   48.03   48.16</time>
   <energy>
    <i name="e_fr_energy">  -1113.16087211 </i>
    <i name="e_wo_entrp">  -1113.05981088 </i>
    <i name="e_0_energy">  -1113.11034149 </i>
   </energy>
  </scstep>
  <scstep>
   <time name="diag">    8.53    8.60</time>
   <time name="diis">   31.46   31.51</time>
   <time name="orth">    0.94    0.94</time>
   <time name="total">   45.72   45.89</time>
   <energy>
    <i name="e_fr_energy">  -1202.15726310 </i>
    <i name="e_wo_entrp">  -1202.11693875 </i>
    <i name="e_0_energy">  -1202.13710093 </i>
   </energy>
  </scstep>
  <scstep>
   <time name="diag">    8.51    8.58</time>
   <time name="diis">   31.06   31.11</time>
   <time name="orth">    0.94    0.94</time>
   <time name="total">   45.32   45.47</time>
   <energy>
    <i name="e_fr_energy">  -1118.04147650 </i>
    <i name="e_wo_entrp">  -1117.98447641 </i>
    <i name="e_0_energy">  -1118.01297646 </i>
   </energy>
  </scstep>
  <scstep>
   <time name="diag">    8.55    8.61</time>
   <time name="diis">   31.06   31.11</time>
   <time name="orth">    0.94    0.94</time>
   <time name="total">   45.31   45.47</time>
   <energy>
    <i name="e_fr_energy">  -1097.18148768 </i>
    <i name="e_wo_entrp">  -1097.13333294 </i>
    <i name="e_0_energy">  -1097.15741031 </i>
   </energy>
  </scstep>
  <scstep>
   <time name="diag">    8.52    8.56</time>
   <time name="diis">   30.32   30.37</time>
   <time name="orth">    0.93    0.94</time>
   <time name="total">   44.58   44.71</time>
   <energy>
    <i name="e_fr_energy">  -1143.33399728 </i>
    <i name="e_wo_entrp">  -1143.27122132 </i>
    <i name="e_0_energy">  -1143.30260930 </i>
   </energy>
  </scstep>
  <scstep>
   <time name="diag">    8.55    8.60</time>
   <time name="diis">   30.67   30.74</time>
   <time name="orth">    0.93    0.95</time>
   <time name="total">   44.95   45.12</time>
   <energy>
    <i name="e_fr_energy">  -1116.07907870 </i>
    <i name="e_wo_entrp">  -1116.02535144 </i>
    <i name="e_0_energy">  -1116.05221507 </i>
   </energy>
  </scstep>
  <scstep>
   <time name="diag">    8.53    8.57</time>
   <time name="diis">   30.81   30.85</time>
   <time name="orth">    0.93    0.94</time>
   <time name="total">   45.07   45.20</time>
   <energy>
    <i name="e_fr_energy">  -1110.14427091 </i>
    <i name="e_wo_entrp">  -1110.08539816 </i>
    <i name="e_0_energy">  -1110.11483453 </i>
   </energy>
  </scstep>
  <scstep>
   <time name="diag">    8.55    8.61</time>
   <time name="diis">   30.84   30.89</time>
   <time name="orth">    0.94    0.94</time>
   <time name="total">   45.10   45.26</time>
   <energy>
    <i name="e_fr_energy">  -1110.90876478 </i>
    <i name="e_wo_entrp">  -1110.88097021 </i>
    <i name="e_0_energy">  -1110.89486750 </i>
   </energy>
  </scstep>
  <scstep>
   <time name="diag">    8.53    8.58</time>
   <time name="diis">   31.14   31.19</time>
   <time name="orth">    0.94    0.94</time>
   <time name="total">   45.43   45.57</time>
   <energy>
    <i name="e_fr_energy">  -1114.20907083 </i>
    <i name="e_wo_entrp">  -1114.11499548 </i>
    <i name="e_0_energy">  -1114.16203316 </i>
   </energy>
  </scstep>
  <scstep>
   <time name="diag">    8.55    8.61</time>
   <time name="diis">   31.41   31.44</time>
   <time name="orth">    0.93    0.94</time>
   <time name="total">   45.71   45.83</time>
   <energy>
    <i name="e_fr_energy">  -1120.13411700 </i>
    <i name="e_wo_entrp">  -1120.07754045 </i>
    <i name="e_0_energy">  -1120.10582873 </i>
   </energy>
  </scstep>
  <scstep>
   <time name="diag">    8.54    8.58</time>
   <time name="diis">   31.33   31.36</time>
   <time name="orth">    0.94    0.94</time>
   <time name="total">   45.66   45.77</time>
   <energy>
    <i name="e_fr_energy">  -1124.15408542 </i>
    <i name="e_wo_entrp">  -1124.10186133 </i>
    <i name="e_0_energy">  -1124.12797337 </i>
   </energy>
  </scstep>
  <scstep>
   <time name="diag">    8.56    8.61</time>
   <time name="diis">   31.46   31.48</time>
   <time name="orth">    0.94    0.94</time>
   <time name="total">   45.78   45.88</time>
   <energy>
    <i name="e_fr_energy">  -1129.76671083 </i>
    <i name="e_wo_entrp">  -1129.73912917 </i>
    <i name="e_0_energy">  -1129.75292000 </i>
   </energy>
  </scstep>
  <scstep>
   <time name="diag">    8.53    8.58</time>
   <time name="diis">   31.51   31.54</time>
   <time name="orth">    0.93    0.94</time>
   <time name="total">   45.82   45.93</time>
   <energy>
    <i name="e_fr_energy">  -1133.17317495 </i>
    <i name="e_wo_entrp">  -1133.13385079 </i>
    <i name="e_0_energy">  -1133.15351287 </i>
   </energy>
  </scstep>
  <scstep>
   <time name="diag">    8.56    8.61</time>
   <time name="diis">   32.89   32.91</time>
   <time name="orth">    0.93    0.93</time>
   <time name="total">   47.19   47.30</time>
   <energy>
    <i name="e_fr_energy">  -1135.19628533 </i>
    <i name="e_wo_entrp">  -1135.11711160 </i>
    <i name="e_0_energy">  -1135.15669846 </i>
   </energy>
  </scstep>
  <scstep>
   <time name="diag">    8.53    8.57</time>
   <time name="diis">   31.19   31.22</time>
   <time name="orth">    0.93    0.93</time>
   <time name="total">   45.48   45.60</time>
   <energy>
    <i name="e_fr_energy">  -1139.99247376 </i>
    <i name="e_wo_entrp">  -1139.93309613 </i>
    <i name="e_0_energy">  -1139.96278495 </i>
   </energy>
  </scstep>
  <scstep>
   <time name="diag">    8.55    8.61</time>
   <time name="diis">   31.32   31.34</time>
   <time name="orth">    0.94    0.95</time>
   <time name="total">   45.63   45.75</time>
   <energy>
    <i name="e_fr_energy">  -1144.93562734 </i>
    <i name="e_wo_entrp">  -1144.86033546 </i>
    <i name="e_0_energy">  -1144.89798140 </i>
   </energy>
  </scstep>
  <scstep>
   <time name="diag">    8.51    8.57</time>
   <time name="diis">   30.65   30.68</time>
   <time name="orth">    0.95    0.95</time>
   <time name="total">   44.95   45.08</time>
   <energy>
    <i name="e_fr_energy">  -1153.84883170 </i>
    <i name="e_wo_entrp">  -1153.78172477 </i>
    <i name="e_0_energy">  -1153.81527823 </i>
   </energy>
  </scstep>
  <scstep>
   <time name="diag">    8.56    8.61</time>
   <time name="diis">   32.27   32.28</time>
   <time name="orth">    0.93    0.93</time>
   <time name="total">   46.60   46.70</time>
   <energy>
    <i name="e_fr_energy">  -1155.04742448 </i>
    <i name="e_wo_entrp">  -1155.02393070 </i>
    <i name="e_0_energy">  -1155.03567759 </i>
   </energy>
  </scstep>
  <scstep>
   <time name="diag">    8.52    8.57</time>
   <time name="diis">   30.76   30.78</time>
   <time name="orth">    0.93    0.94</time>
   <time name="total">   45.08   45.19</time>
   <energy>
    <i name="e_fr_energy">  -1159.57602601 </i>
    <i name="e_wo_entrp">  -1159.54728931 </i>
    <i name="e_0_energy">  -1159.56165766 </i>
   </energy>
  </scstep>
  <scstep>
   <time name="diag">    8.57    8.61</time>
   <time name="diis">   31.94   31.97</time>
   <time name="orth">    0.93    0.94</time>
   <time name="total">   46.28   46.37</time>
   <energy>
    <i name="e_fr_energy">  -1159.86434421 </i>
    <i name="e_wo_entrp">  -1159.82832654 </i>
    <i name="e_0_energy">  -1159.84633537 </i>
   </energy>
  </scstep>
  <scstep>
   <time name="diag">    8.53    8.58</time>
   <time name="diis">   30.59   30.62</time>
   <time name="orth">    0.94    0.94</time>
   <time name="total">   44.95   45.06</time>
   <energy>
    <i name="e_fr_energy">  -1162.43276024 </i>
    <i name="e_wo_entrp">  -1162.41206393 </i>
    <i name="e_0_energy">  -1162.42241208 </i>
   </energy>
  </scstep>
  <scstep>
   <time name="diag">    8.56    8.60</time>
   <time name="diis">   30.81   30.84</time>
   <time name="orth">    0.93    0.94</time>
   <time name="total">   45.15   45.25</time>
   <energy>
    <i name="e_fr_energy">  -1166.55082080 </i>
    <i name="e_wo_entrp">  -1166.50245625 </i>
    <i name="e_0_energy">  -1166.52663852 </i>
   </energy>
  </scstep>
  <scstep>
   <time name="diag">    8.51    8.56</time>
   <time name="diis">   30.75   30.82</time>
   <time name="orth">    0.93    0.93</time>
   <time name="total">   45.08   45.23</time>
   <energy>
    <i name="e_fr_energy">  -1172.78465064 </i>
    <i name="e_wo_entrp">  -1172.76680986 </i>
    <i name="e_0_energy">  -1172.77573025 </i>
   </energy>
  </scstep>
  <scstep>
   <time name="diag">    8.55    8.60</time>
   <time name="diis">   32.47   32.54</time>
   <time name="orth">    0.93    0.94</time>
   <time name="total">   46.82   46.97</time>
   <energy>
    <i name="e_fr_energy">  -1176.85221051 </i>
    <i name="e_wo_entrp">  -1176.82575527 </i>
    <i name="e_0_energy">  -1176.83898289 </i>
   </energy>
  </scstep>
  <scstep>
   <time name="diag">    8.51    8.57</time>
   <time name="diis">   33.05   33.09</time>
   <time name="orth">    0.92    0.93</time>
   <time name="total">   47.38   47.52</time>
   <energy>
    <i name="e_fr_energy">  -1178.35314079 </i>
    <i name="e_wo_entrp">  -1178.33570259 </i>
    <i name="e_0_energy">  -1178.34442169 </i>
   </energy>
  </scstep>
  <scstep>
   <time name="diag">    8.55    8.60</time>
   <time name="diis">   31.92   31.95</time>
   <time name="orth">    0.93    0.94</time>
   <time name="total">   46.26   46.38</time>
   <energy>
    <i name="e_fr_energy">  -1179.94372681 </i>
    <i name="e_wo_entrp">  -1179.93724475 </i>
    <i name="e_0_energy">  -1179.94048578 </i>
   </energy>
  </scstep>
  <scstep>
   <time name="diag">    8.54    8.57</time>
   <time name="diis">   30.78   30.81</time>
   <time name="orth">    0.93    0.94</time>
   <time name="total">   45.16   45.26</time>
   <energy>
    <i name="e_fr_energy">  -1182.39596880 </i>
    <i name="e_wo_entrp">  -1182.36982104 </i>
    <i name="e_0_energy">  -1182.38289492 </i>
   </energy>
  </scstep>
  <scstep>
   <time name="diag">    8.57    8.60</time>
   <time name="diis">   31.86   31.88</time>
   <time name="orth">    0.93    0.94</time>
   <time name="total">   46.22   46.31</time>
   <energy>
    <i name="e_fr_energy">  -1185.54350784 </i>
    <i name="e_wo_entrp">  -1185.53075432 </i>
    <i name="e_0_energy">  -1185.53713108 </i>
   </energy>
  </scstep>
  <scstep>
   <time name="diag">    8.54    8.57</time>
   <time name="diis">   33.53   33.56</time>
   <time name="orth">    0.93    0.93</time>
   <time name="total">   47.92   48.02</time>
   <energy>
    <i name="e_fr_energy">  -1187.62538123 </i>
    <i name="e_wo_entrp">  -1187.61106761 </i>
    <i name="e_0_energy">  -1187.61822442 </i>
   </energy>
  </scstep>
  <scstep>
   <time name="diag">    8.56    8.61</time>
   <time name="diis">   31.35   31.39</time>
   <time name="orth">    0.94    0.94</time>
   <time name="total">   45.74   45.86</time>
   <energy>
    <i name="e_fr_energy">  -1189.88424918 </i>
    <i name="e_wo_entrp">  -1189.87773108 </i>
    <i name="e_0_energy">  -1189.88099013 </i>
   </energy>
  </scstep>
  <scstep>
   <time name="diag">    8.54    8.58</time>
   <time name="diis">   32.22   32.26</time>
   <time name="orth">    0.94    0.94</time>
   <time name="total">   46.62   46.73</time>
   <energy>
    <i name="e_fr_energy">  -1192.11687476 </i>
    <i name="e_wo_entrp">  -1192.10561654 </i>
    <i name="e_0_energy">  -1192.11124565 </i>
   </energy>
  </scstep>
  <scstep>
   <time name="diag">    8.56    8.60</time>
   <time name="diis">   33.36   33.39</time>
   <time name="orth">    0.93    0.94</time>
   <time name="total">   47.76   47.87</time>
   <energy>
    <i name="e_fr_energy">  -1193.34598514 </i>
    <i name="e_wo_entrp">  -1193.34146768 </i>
    <i name="e_0_energy">  -1193.34372641 </i>
   </energy>
  </scstep>
  <scstep>
   <time name="diag">    8.53    8.57</time>
   <time name="diis">   31.05   31.08</time>
   <time name="orth">    0.93    0.94</time>
   <time name="total">   45.46   45.56</time>
   <energy>
    <i name="e_fr_energy">  -1194.75242402 </i>
    <i name="e_wo_entrp">  -1194.75042966 </i>
    <i name="e_0_energy">  -1194.75142684 </i>
   </energy>
  </scstep>
  <scstep>
   <time name="diag">    8.55    8.60</time>
   <time name="diis">   31.38   31.41</time>
   <time name="orth">    0.93    0.93</time>
   <time name="total">   45.79   45.90</time>
   <energy>
    <i name="e_fr_energy">  -1196.11050492 </i>
    <i name="e_wo_entrp">  -1196.10904331 </i>
    <i name="e_0_energy">  -1196.10977411 </i>
   </energy>
  </scstep>
  <scstep>
   <time name="diag">    8.52    8.57</time>
   <time name="diis">   32.99   33.02</time>
   <time name="orth">    0.93    0.94</time>
   <time name="total">   47.39   47.50</time>
   <energy>
    <i name="e_fr_energy">  -1196.45391411 </i>
    <i name="e_wo_entrp">  -1196.45239551 </i>
    <i name="e_0_energy">  -1196.45315481 </i>
   </energy>
  </scstep>
  <scstep>
   <time name="diag">    8.55    8.61</time>
   <time name="diis">   30.40   30.44</time>
   <time name="orth">    0.93    0.94</time>
   <time name="total">   44.81   44.95</time>
   <energy>
    <i name="e_fr_energy">  -1198.02496576 </i>
    <i name="e_wo_entrp">  -1198.02443968 </i>
    <i name="e_0_energy">  -1198.02470272 </i>
   </energy>
  </scstep>
  <scstep>
   <time name="diag">    8.51    8.58</time>
   <time name="diis">   32.93   32.96</time>
   <time name="orth">    0.93    0.93</time>
   <time name="total">   47.33   47.46</time>
   <energy>
    <i name="e_fr_energy">  -1199.10720125 </i>
    <i name="e_wo_entrp">  -1199.10694560 </i>
    <i name="e_0_energy">  -1199.10707343 </i>
   </energy>
  </scstep>
  <scstep>
   <time name="diag">    8.57    8.61</time>
   <time name="diis">   34.31   34.35</time>
   <time name="orth">    0.93    0.94</time>
   <time name="total">   48.76   48.88</time>
   <energy>
    <i name="e_fr_energy">  -1199.80434411 </i>
    <i name="e_wo_entrp">  -1199.80415374 </i>
    <i name="e_0_energy">  -1199.80424892 </i>
   </energy>
  </scstep>
  <scstep>
   <time name="diag">    8.52    8.56</time>
   <time name="diis">   33.77   33.83</time>
   <time name="orth">    0.93    0.94</time>
   <time name="total">   48.18   48.34</time>
   <energy>
    <i name="e_fr_energy">  -1200.54442729 </i>
    <i name="e_wo_entrp">  -1200.54431893 </i>
    <i name="e_0_energy">  -1200.54437311 </i>
   </energy>
  </scstep>
  <scstep>
   <time name="diag">    8.55    8.61</time>
   <time name="diis">   35.43   35.48</time>
   <time name="orth">    0.94    0.94</time>
   <time name="total">   49.86   50.01</time>
   <energy>
    <i name="e_fr_energy">  -1201.16535694 </i>
    <i name="e_wo_entrp">  -1201.16529145 </i>
    <i name="e_0_energy">  -1201.16532419 </i>
   </energy>
  </scstep>
  <scstep>
   <time name="diag">    8.52    8.58</time>
   <time name="diis">   36.23   36.28</time>
   <time name="orth">    0.93    0.93</time>
   <time name="total">   50.67   50.81</time>
   <energy>
    <i name="e_fr_energy">  -1201.47608029 </i>
    <i name="e_wo_entrp">  -1201.47602986 </i>
    <i name="e_0_energy">  -1201.47605507 </i>
   </energy>
  </scstep>
  <scstep>
   <time name="diag">    8.55    8.60</time>
   <time name="diis">   36.77   36.84</time>
   <time name="orth">    0.93    0.94</time>
   <time name="total">   51.22   51.36</time>
   <energy>
    <i name="e_fr_energy">  -1201.54878725 </i>
    <i name="e_wo_entrp">  -1201.54873866 </i>
    <i name="e_0_energy">  -1201.54876296 </i>
   </energy>
  </scstep>
  <scstep>
   <time name="diag">    8.53    8.56</time>
   <time name="diis">   31.28   31.35</time>
   <time name="orth">    0.93    0.94</time>
   <time name="total">   45.71   45.86</time>
   <energy>
    <i name="e_fr_energy">  -1201.63937681 </i>
    <i name="e_wo_entrp">  -1201.63933657 </i>
    <i name="e_0_energy">  -1201.63935669 </i>
   </energy>
  </scstep>
  <scstep>
   <time name="diag">    8.55    8.60</time>
   <time name="diis">   30.97   31.03</time>
   <time name="orth">    0.92    0.93</time>
   <time name="total">   45.38   45.54</time>
   <energy>
    <i name="e_fr_energy">  -1201.66139694 </i>
    <i name="e_wo_entrp">  -1201.66136942 </i>
    <i name="e_0_energy">  -1201.66138318 </i>
   </energy>
  </scstep>
  <scstep>
   <time name="diag">    8.51    8.57</time>
   <time name="diis">   35.02   35.08</time>
   <time name="orth">    0.93    0.94</time>
   <time name="total">   49.44   49.60</time>
   <energy>
    <i name="e_fr_energy">  -1201.66914377 </i>
    <i name="e_wo_entrp">  -1201.66912828 </i>
    <i name="e_0_energy">  -1201.66913603 </i>
   </energy>
  </scstep>
  <scstep>
   <time name="diag">    8.55    8.60</time>
   <time name="diis">   35.93   35.98</time>
   <time name="orth">    0.93    0.94</time>
   <time name="total">   50.38   50.52</time>
   <energy>
    <i name="e_fr_energy">  -1201.67574281 </i>
    <i name="e_wo_entrp">  -1201.67573302 </i>
    <i name="e_0_energy">  -1201.67573792 </i>
   </energy>
  </scstep>
  <scstep>
   <time name="diag">    8.50    8.56</time>
   <time name="diis">   35.21   35.27</time>
   <time name="orth">    0.93    0.93</time>
   <time name="total">   49.61   49.77</time>
   <energy>
    <i name="e_fr_energy">  -1201.68477244 </i>
    <i name="e_wo_entrp">  -1201.68476568 </i>
    <i name="e_0_energy">  -1201.68476906 </i>
   </energy>
  </scstep>
  <scstep>
   <time name="diag">    8.52    8.59</time>
   <time name="diis">   33.95   33.99</time>
   <time name="orth">    0.92    0.93</time>
   <time name="total">   48.34   48.49</time>
   <energy>
    <i name="e_fr_energy">  -1201.68662999 </i>
    <i name="e_wo_entrp">  -1201.68662423 </i>
    <i name="e_0_energy">  -1201.68662711 </i>
   </energy>
  </scstep>
  <scstep>
   <time name="diag">    8.49    8.57</time>
   <time name="diis">   34.71   34.75</time>
   <time name="orth">    0.94    0.94</time>
   <time name="total">   49.11   49.27</time>
   <energy>
    <i name="e_fr_energy">  -1201.69031440 </i>
    <i name="e_wo_entrp">  -1201.69030943 </i>
    <i name="e_0_energy">  -1201.69031192 </i>
   </energy>
  </scstep>
  <scstep>
   <time name="diag">    8.52    8.59</time>
   <time name="diis">   35.25   35.28</time>
   <time name="orth">    0.92    0.93</time>
   <time name="total">   49.65   49.79</time>
   <energy>
    <i name="e_fr_energy">  -1201.69375893 </i>
    <i name="e_wo_entrp">  -1201.69375431 </i>
    <i name="e_0_energy">  -1201.69375662 </i>
   </energy>
  </scstep>
  <scstep>
   <time name="diag">    8.53    8.57</time>
   <time name="diis">   35.47   35.50</time>
   <time name="orth">    0.93    0.94</time>
   <time name="total">   49.94   50.04</time>
   <energy>
    <i name="e_fr_energy">  -1201.69528914 </i>
    <i name="e_wo_entrp">  -1201.69528474 </i>
    <i name="e_0_energy">  -1201.69528694 </i>
   </energy>
  </scstep>
  <scstep>
   <time name="diag">    8.54    8.60</time>
   <time name="diis">   33.11   33.14</time>
   <time name="orth">    0.93    0.93</time>
   <time name="total">   47.55   47.67</time>
   <energy>
    <i name="e_fr_energy">  -1201.69649194 </i>
    <i name="e_wo_entrp">  -1201.69648768 </i>
    <i name="e_0_energy">  -1201.69648981 </i>
   </energy>
  </scstep>
  <scstep>
   <time name="diag">    8.52    8.57</time>
   <time name="diis">   31.76   31.77</time>
   <time name="orth">    0.92    0.93</time>
   <time name="total">   46.14   46.24</time>
   <energy>
    <i name="e_fr_energy">  -1201.69735944 </i>
    <i name="e_wo_entrp">  -1201.69735533 </i>
    <i name="e_0_energy">  -1201.69735738 </i>
   </energy>
  </scstep>
  <scstep>
   <time name="diag">    8.55    8.59</time>
   <time name="diis">   29.54   29.58</time>
   <time name="orth">    0.93    0.94</time>
   <time name="total">   43.99   44.11</time>
   <energy>
    <i name="e_fr_energy">  -1201.69807626 </i>
    <i name="e_wo_entrp">  -1201.69807217 </i>
    <i name="e_0_energy">  -1201.69807422 </i>
   </energy>
  </scstep>
  <scstep>
   <time name="diag">    8.52    8.56</time>
   <time name="diis">   29.59   29.63</time>
   <time name="orth">    0.92    0.93</time>
   <time name="total">   44.00   44.12</time>
   <energy>
    <i name="e_fr_energy">  -1201.69858341 </i>
    <i name="e_wo_entrp">  -1201.69857934 </i>
    <i name="e_0_energy">  -1201.69858138 </i>
   </energy>
  </scstep>
  <scstep>
   <time name="diag">    8.55    8.59</time>
   <time name="diis">   29.16   29.19</time>
   <time name="orth">    0.93    0.93</time>
   <time name="total">   43.60   43.71</time>
   <energy>
    <i name="e_fr_energy">  -1201.69894353 </i>
    <i name="e_wo_entrp">  -1201.69893947 </i>
    <i name="e_0_energy">  -1201.69894150 </i>
   </energy>
  </scstep>
  <scstep>
   <time name="diag">    8.52    8.56</time>
   <time name="diis">   27.06   27.11</time>
   <time name="orth">    0.92    0.93</time>
   <time name="total">   41.48   41.61</time>
   <energy>
    <i name="e_fr_energy">  -1201.69921480 </i>
    <i name="e_wo_entrp">  -1201.69921075 </i>
    <i name="e_0_energy">  -1201.69921278 </i>
   </energy>
  </scstep>
  <scstep>
   <time name="diag">    8.53    8.59</time>
   <time name="diis">   24.29   24.32</time>
   <time name="orth">    0.93    0.94</time>
   <time name="total">   38.71   38.82</time>
   <energy>
    <i name="e_fr_energy">  -1201.69931647 </i>
    <i name="e_wo_entrp">  -1201.69931242 </i>
    <i name="e_0_energy">  -1201.69931445 </i>
   </energy>
  </scstep>
  <scstep>
   <time name="diag">    8.52    8.56</time>
   <time name="diis">   22.00   22.04</time>
   <time name="orth">    0.93    0.94</time>
   <time name="total">   36.41   36.53</time>
   <energy>
    <i name="e_fr_energy">  -1201.69939446 </i>
    <i name="e_wo_entrp">  -1201.69939041 </i>
    <i name="e_0_energy">  -1201.69939243 </i>
   </energy>
  </scstep>
  <scstep>
   <time name="diag">    8.53    8.59</time>
   <time name="diis">   23.64   23.69</time>
   <time name="orth">    0.94    0.94</time>
   <time name="total">   38.08   38.22</time>
   <energy>
    <i name="e_fr_energy">  -1201.69949873 </i>
    <i name="e_wo_entrp">  -1201.69949468 </i>
    <i name="e_0_energy">  -1201.69949670 </i>
   </energy>
  </scstep>
  <scstep>
   <time name="diag">    8.51    8.56</time>
   <time name="diis">   22.46   22.50</time>
   <time name="orth">    0.93    0.93</time>
   <time name="total">   36.90   37.02</time>
   <energy>
    <i name="e_fr_energy">  -1201.69957041 </i>
    <i name="e_wo_entrp">  -1201.69956636 </i>
    <i name="e_0_energy">  -1201.69956839 </i>
   </energy>
  </scstep>
  <scstep>
   <time name="diag">    8.54    8.58</time>
   <time name="diis">   22.34   22.40</time>
   <time name="orth">    0.93    0.94</time>
   <time name="total">   36.76   36.91</time>
   <energy>
    <i name="e_fr_energy">  -1201.69962723 </i>
    <i name="e_wo_entrp">  -1201.69962319 </i>
    <i name="e_0_energy">  -1201.69962521 </i>
   </energy>
  </scstep>
  <scstep>
   <time name="diag">    8.52    8.56</time>
   <time name="diis">   21.40   21.42</time>
   <time name="orth">    0.93    0.95</time>
   <time name="total">   35.82   35.92</time>
   <energy>
    <i name="e_fr_energy">  -1201.69965470 </i>
    <i name="e_wo_entrp">  -1201.69965065 </i>
    <i name="e_0_energy">  -1201.69965268 </i>
   </energy>
  </scstep>
  <scstep>
   <time name="diag">    8.53    8.58</time>
[...]
       <r>   -12.9513     0.0000    90.0000 </r>
       <r>   -12.8385     0.0000    90.0000 </r>
       <r>   -12.7257     0.0000    90.0000 </r>
       <r>   -12.6130     0.0000    90.0000 </r>
       <r>   -12.5002     0.0000    90.0000 </r>
       <r>   -12.3875     0.0000    90.0000 </r>
       <r>   -12.2747     0.0000    90.0000 </r>
       <r>   -12.1620     0.0004    90.0000 </r>
       <r>   -12.0492     5.2036    90.5868 </r>
       <r>   -11.9364    53.6442    96.6356 </r>
       <r>   -11.8237    20.9630    98.9993 </r>
       <r>   -11.7109    17.8637   101.0136 </r>
       <r>   -11.5982    33.7254   104.8164 </r>
       <r>   -11.4854    30.8321   108.2929 </r>
       <r>   -11.3727     6.2449   108.9971 </r>
       <r>   -11.2599     0.0260   109.0000 </r>
       <r>   -11.1471     1.0126   109.1142 </r>
       <r>   -11.0344    30.9447   112.6034 </r>
       <r>   -10.9216     3.9665   113.0507 </r>
       <r>   -10.8089    15.5174   114.8004 </r>
       <r>   -10.6961    15.7756   116.5792 </r>
       <r>   -10.5834     3.7315   116.9999 </r>
       <r>   -10.4706     2.0922   117.2359 </r>
       <r>   -10.3578    15.3108   118.9623 </r>
       <r>   -10.2451    22.0457   121.4481 </r>
       <r>   -10.1323    20.2223   123.7283 </r>
       <r>   -10.0196    29.4593   127.0501 </r>
       <r>    -9.9068    16.1030   128.8658 </r>
       <r>    -9.7941    27.1364   131.9256 </r>
       <r>    -9.6813    27.1384   134.9857 </r>
       <r>    -9.5685     0.2874   135.0181 </r>
       <r>    -9.4558    38.4723   139.3561 </r>
       <r>    -9.3430    34.1543   143.2073 </r>
       <r>    -9.2303    16.6087   145.0800 </r>
       <r>    -9.1175    29.8777   148.4489 </r>
       <r>    -9.0048    38.9227   152.8378 </r>
       <r>    -8.8920    19.1289   154.9947 </r>
       <r>    -8.7792    55.9062   161.2985 </r>
       <r>    -8.6665    30.3149   164.7168 </r>
       <r>    -8.5537    54.4486   170.8562 </r>
       <r>    -8.4410    11.2225   172.1217 </r>
       <r>    -8.3282    35.8883   176.1683 </r>
       <r>    -8.2154    43.2790   181.0484 </r>
       <r>    -8.1027    23.0459   183.6470 </r>
       <r>    -7.9899    29.2923   186.9499 </r>
       <r>    -7.8772    18.0545   188.9857 </r>
       <r>    -7.7644     0.1271   189.0000 </r>
       <r>    -7.6517     0.0043   189.0005 </r>
       <r>    -7.5389    15.2570   190.7208 </r>
       <r>    -7.4261    63.0617   197.8315 </r>
       <r>    -7.3134     1.5072   198.0014 </r>
       <r>    -7.2006    31.3300   201.5341 </r>
       <r>    -7.0879   118.6851   214.9168 </r>
       <r>    -6.9751    10.8602   216.1413 </r>
       <r>    -6.8624    34.0334   219.9789 </r>
       <r>    -6.7496    35.9503   224.0325 </r>
       <r>    -6.6368     8.4755   224.9882 </r>
       <r>    -6.5241     0.1047   225.0000 </r>
       <r>    -6.4113     3.0431   225.3431 </r>
       <r>    -6.2986    69.2873   233.1558 </r>
       <r>    -6.1858     7.4865   234.0000 </r>
       <r>    -6.0731     0.0004   234.0000 </r>
       <r>    -5.9603     0.0001   234.0000 </r>
       <r>    -5.8475     2.5640   234.2891 </r>
       <r>    -5.7348    59.6791   241.0184 </r>
       <r>    -5.6220    18.5491   243.1099 </r>
       <r>    -5.5093    33.5599   246.8941 </r>
       <r>    -5.3965    43.1684   251.7616 </r>
       <r>    -5.2838     2.4341   252.0361 </r>
       <r>    -5.1710    28.2207   255.2182 </r>
       <r>    -5.0582    41.2061   259.8644 </r>
       <r>    -4.9455    35.2743   263.8419 </r>
       <r>    -4.8327    15.7916   265.6225 </r>
       <r>    -4.7200    81.2088   274.7794 </r>
       <r>    -4.6072    32.2145   278.4118 </r>
       <r>    -4.4945     6.3493   279.1277 </r>
       <r>    -4.3817    70.3083   287.0555 </r>
       <r>    -4.2689    83.4229   296.4621 </r>
       <r>    -4.1562    19.6074   298.6730 </r>
       <r>    -4.0434    55.4694   304.9275 </r>
       <r>    -3.9307    33.8010   308.7388 </r>
       <r>    -3.8179     2.6151   309.0337 </r>
       <r>    -3.7052    14.5020   310.6689 </r>
       <r>    -3.5924    66.6011   318.1787 </r>
       <r>    -3.4796    38.8891   322.5637 </r>
       <r>    -3.3669    12.5066   323.9739 </r>
       <r>    -3.2541     0.2312   324.0000 </r>
       <r>    -3.1414     0.0000   324.0000 </r>
       <r>    -3.0286     0.0000   324.0000 </r>
       <r>    -2.9159     0.0000   324.0000 </r>
       <r>    -2.8031     0.0000   324.0000 </r>
       <r>    -2.6903     0.0000   324.0000 </r>
       <r>    -2.5776     1.0660   324.1202 </r>
       <r>    -2.4648    42.8920   328.9566 </r>
       <r>    -2.3521    32.6883   332.6424 </r>
       <r>    -2.2393     3.1695   332.9998 </r>
       <r>    -2.1266     0.0015   333.0000 </r>
       <r>    -2.0138     0.0000   333.0000 </r>
       <r>    -1.9010     0.0027   333.0003 </r>
       <r>    -1.7883     9.7855   334.1037 </r>
       <r>    -1.6755    75.0039   342.5609 </r>
       <r>    -1.5628    27.5048   345.6623 </r>
       <r>    -1.4500    78.8945   354.5582 </r>
       <r>    -1.3373   117.9626   367.8594 </r>
       <r>    -1.2245    10.1142   368.9998 </r>
       <r>    -1.1117     0.4600   369.0517 </r>
       <r>    -0.9990     9.1372   370.0820 </r>
       <r>    -0.8862    35.6696   374.1040 </r>
       <r>    -0.7735    51.8976   379.9558 </r>
       <r>    -0.6607    61.1363   386.8494 </r>
       <r>    -0.5479     1.3355   387.0000 </r>
       <r>    -0.4352     0.0000   387.0000 </r>
       <r>    -0.3224     0.0010   387.0001 </r>
       <r>    -0.2097     6.9731   387.7864 </r>
       <r>    -0.0969    80.0764   396.8156 </r>
       <r>     0.0158    71.8393   404.9160 </r>
       <r>     0.1286     0.7450   405.0000 </r>
       <r>     0.2414     0.0398   405.0045 </r>
       <r>     0.3541    20.1330   407.2746 </r>
       <r>     0.4669    64.7349   414.5740 </r>
       <r>     0.5796    98.1072   425.6363 </r>
       <r>     0.6924    56.1879   431.9719 </r>
       <r>     0.8051     0.2494   432.0000 </r>
       <r>     0.9179     0.0000   432.0000 </r>
       <r>     1.0307     0.0000   432.0000 </r>
       <r>     1.1434     0.0000   432.0000 </r>
       <r>     1.2562     0.0000   432.0000 </r>
       <r>     1.3689     0.0000   432.0000 </r>
       <r>     1.4817     0.0000   432.0000 </r>
       <r>     1.5944     0.0000   432.0000 </r>
       <r>     1.7072     0.0000   432.0000 </r>
       <r>     1.8200     0.0000   432.0000 </r>
       <r>     1.9327     0.0001   432.0000 </r>
       <r>     2.0455     2.7544   432.3106 </r>
       <r>     2.1582    65.0227   439.6424 </r>
       <r>     2.2710    74.5046   448.0433 </r>
       <r>     2.3837    26.1682   450.9940 </r>
       <r>     2.4965    13.5475   452.5216 </r>
       <r>     2.6093    21.9105   454.9921 </r>
       <r>     2.7220     0.0803   455.0012 </r>
       <r>     2.8348     9.3245   456.0526 </r>
       <r>     2.9475    16.9910   457.9684 </r>
       <r>     3.0603     0.3510   458.0080 </r>
       <r>     3.1730    20.7508   460.3478 </r>
       <r>     3.2858    24.7263   463.1359 </r>
       <r>     3.3986    25.2443   465.9824 </r>
       <r>     3.5113     0.1563   466.0000 </r>
       <r>     3.6241     0.0977   466.0110 </r>
       <r>     3.7368    13.0329   467.4806 </r>
       <r>     3.8496    10.9241   468.7124 </r>
       <r>     3.9623    33.1928   472.4551 </r>
       <r>     4.0751    41.6307   477.1492 </r>
       <r>     4.1879    24.8376   479.9499 </r>
       <r>     4.3006     0.4446   480.0000 </r>
       <r>     4.4134     1.8326   480.2066 </r>
       <r>     4.5261    52.6366   486.1418 </r>
       <r>     4.6389    18.9351   488.2769 </r>
       <r>     4.7516    43.1393   493.1412 </r>
       <r>     4.8644    45.1584   498.2331 </r>
       <r>     4.9772    40.3475   502.7826 </r>
       <r>     5.0899    10.7665   503.9966 </r>
       <r>     5.2027     4.0296   504.4509 </r>
       <r>     5.3154    63.2623   511.5842 </r>
       <r>     5.4282    22.1263   514.0791 </r>
       <r>     5.5409    16.3464   515.9223 </r>
       <r>     5.6537     9.4346   516.9861 </r>
       <r>     5.7665    22.4726   519.5201 </r>
       <r>     5.8792    31.1541   523.0329 </r>
       <r>     5.9920    11.8704   524.3714 </r>
       <r>     6.1047    52.1037   530.2465 </r>
       <r>     6.2175    52.3215   536.1461 </r>
       <r>     6.3303    33.5774   539.9322 </r>
       <r>     6.4430     0.6011   540.0000 </r>
       <r>     6.5558     0.0000   540.0000 </r>
       <r>     6.6685     0.0000   540.0000 </r>
       <r>     6.7813     0.0000   540.0000 </r>
       <r>     6.8940     0.0000   540.0000 </r>
       <r>     7.0068     0.0000   540.0000 </r>
       <r>     7.1196     0.0000   540.0000 </r>
       <r>     7.2323     0.0000   540.0000 </r>
       <r>     7.3451     0.0000   540.0000 </r>
       <r>     7.4578     0.0000   540.0000 </r>
       <r>     7.5706     0.0000   540.0000 </r>
       <r>     7.6833     0.0000   540.0000 </r>
       <r>     7.7961     0.0000   540.0000 </r>
      </set>
     </set>
    </array>
   </total>
  </dos>
 </calculation>
 <structure name="finalpos" >
  <crystal>
   <varray name="basis" >
    <v>      25.98693002       0.00147765      -0.00028417 </v>
    <v>      12.99474432      22.50351615      -0.00057691 </v>
    <v>      -0.00007409      -0.00013281       6.80983206 </v>
   </varray>
   <i name="volume">   3982.24063777 </i>
   <varray name="rec_basis" >
    <v>       0.03848215      -0.02222167      -0.00000001 </v>
    <v>      -0.00000253       0.04443896       0.00000087 </v>
    <v>       0.00000161       0.00000284       0.14684650 </v>
   </varray>
  </crystal>
  <varray name="positions" >
   <v>       0.06144361       0.25194818       0.32233747 </v>
   <v>       0.03793774       0.29658713       0.96034921 </v>
   <v>       0.10626997       0.25677954       0.72507409 </v>
   <v>       0.39357042       0.58462378       0.65495707 </v>
   <v>       0.68920985       0.05931222       0.32262773 </v>
   <v>       0.66782870       0.03587342       0.96117520 </v>
   <v>       0.63954968       0.10403581       0.72535635 </v>
   <v>       0.02438473       0.39149799       0.65540488 </v>
   <v>       0.25409713       0.68751181       0.32192574 </v>
   <v>       0.29856551       0.66661480       0.95928238 </v>
   <v>       0.25888385       0.63779546       0.72458907 </v>
   <v>       0.58716754       0.02171049       0.65565470 </v>
   <v>       0.30001751       0.03424702       0.37626680 </v>
   <v>       0.23174145       0.07409519       0.61172283 </v>
   <v>       0.63365385       0.36898475       0.70954789 </v>
   <v>       0.56528203       0.40833002       0.94492784 </v>
   <v>       0.27649944       0.07889578       0.01447822 </v>
   <v>       0.66882995       0.29765119       0.37572763 </v>
   <v>       0.69697894       0.22951830       0.61160602 </v>
   <v>       0.00006966       0.63151319       0.71013484 </v>
   <v>       0.02910926       0.56310098       0.94534568 </v>
   <v>       0.64751201       0.27418247       0.01428631 </v>
   <v>       0.03678612       0.66605488       0.37660836 </v>
   <v>       0.07652070       0.69469156       0.61176316 </v>
   <v>       0.37129708       0.99772466       0.70986733 </v>
   <v>       0.41075786       0.02659792       0.94528857 </v>
   <v>       0.08132564       0.64506150       0.01455097 </v>
   <v>       0.70312230       0.96461760       0.62757398 </v>
   <v>       0.77136240       0.92486698       0.39193665 </v>
   <v>       0.36969833       0.62907579       0.29226204 </v>
   <v>       0.43829644       0.58978047       0.05769454 </v>
   <v>       0.72672856       0.91995716       0.98911713 </v>
   <v>       0.33604632       0.70035796       0.62580797 </v>
   <v>       0.30716757       0.76888283       0.39115225 </v>
   <v>       0.00355950       0.36771987       0.29333164 </v>
   <v>       0.97453118       0.43614445       0.05819138 </v>
   <v>       0.35678003       0.72404512       0.98844750 </v>
   <v>       0.96672740       0.33328034       0.62685229 </v>
   <v>       0.92694636       0.30473577       0.39156574 </v>
   <v>       0.63184947       0.00080713       0.29405743 </v>
   <v>       0.59252903       0.97179078       0.05856426 </v>
   <v>       0.92211268       0.35429188       0.98882024 </v>
   <v>       0.94201686       0.74734144       0.68124721 </v>
   <v>       0.96555568       0.70263996       0.04313887 </v>
   <v>       0.89724947       0.74237824       0.27854800 </v>
   <v>       0.60987108       0.41362423       0.34779591 </v>
   <v>       0.31372379       0.93950463       0.68103843 </v>
   <v>       0.33480003       0.96306227       0.04294705 </v>
   <v>       0.36356478       0.89470704       0.27824512 </v>
   <v>       0.97924018       0.60772952       0.34815809 </v>
   <v>       0.74952197       0.31160627       0.68097118 </v>
   <v>       0.70479886       0.33279045       0.04250057 </v>
   <v>       0.74443050       0.36140820       0.27814332 </v>
   <v>       0.41596415       0.97683450       0.34803610 </v>
   <v>       0.11314137       0.21060568       0.24269221 </v>
   <v>       0.15424192       0.16523738       0.36421737 </v>
   <v>       0.08948215       0.25663580       0.90001815 </v>
   <v>       0.12874835       0.21023931       0.04114276 </v>
   <v>       0.44551449       0.54372801       0.57543320 </v>
   <v>       0.48701366       0.49870212       0.69707003 </v>
   <v>       0.67888077       0.11098731       0.24288908 </v>
   <v>       0.68323710       0.15205128       0.36429619 </v>
   <v>       0.65640039       0.08732162       0.90040532 </v>
   <v>       0.66362241       0.12657407       0.04133938 </v>
   <v>       0.01331085       0.44345534       0.57591345 </v>
   <v>       0.01685037       0.48494047       0.69754929 </v>
   <v>       0.21280032       0.67709627       0.24231592 </v>
   <v>       0.16750214       0.68126722       0.36396069 </v>
   <v>       0.25871810       0.65482286       0.89942475 </v>
   <v>       0.21242169       0.66185174       0.04076821 </v>
   <v>       0.54630287       0.01061876       0.57614083 </v>
   <v>       0.50125420       0.01420129       0.69770614 </v>
   <v>       0.24848866       0.07421275       0.43671293 </v>
   <v>       0.20919665       0.12060259       0.29562229 </v>
   <v>       0.58194155       0.40856392       0.76987958 </v>
   <v>       0.54228569       0.45463460       0.62865829 </v>
   <v>       0.22479601       0.12023762       0.09408277 </v>
   <v>       0.18370384       0.16560446       0.97255866 </v>
   <v>       0.68020767       0.24621452       0.43649364 </v>
   <v>       0.67301585       0.20695190       0.29554807 </v>
   <v>       0.01217711       0.57980330       0.77034443 </v>
   <v>       0.00569931       0.54019088       0.62911679 </v>
   <v>       0.65778665       0.22252401       0.09399472 </v>
   <v>       0.65339869       0.18147643       0.97260159 </v>
   <v>       0.07665331       0.67778517       0.43679672 </v>
   <v>       0.12294826       0.67081415       0.29554320 </v>
   <v>       0.41096702       0.00970919       0.77023977 </v>
   <v>       0.45711054       0.00314459       0.62911863 </v>
   <v>       0.12258854       0.65555028       0.09403507 </v>
   <v>       0.16786546       0.65139842       0.97236742 </v>
   <v>       0.75467568       0.92473621       0.56701380 </v>
   <v>       0.79408117       0.87841658       0.70807019 </v>
   <v>       0.42149923       0.58953404       0.23255931 </v>
   <v>       0.46108650       0.54349738       0.37394123 </v>
   <v>       0.77850441       0.87873320       0.90958803 </v>
   <v>       0.81968302       0.83344161       0.03112031 </v>
   <v>       0.32415086       0.75204349       0.56602559 </v>
   <v>       0.33101258       0.79140147       0.70738124 </v>
   <v>       0.99147103       0.41942789       0.23317924 </v>
   <v>       0.99796701       0.45902371       0.37442537 </v>
   <v>       0.34625741       0.77580485       0.90891714 </v>
   <v>       0.35030722       0.81701071       0.03053613 </v>
   <v>       0.92682528       0.32161488       0.56656575 </v>
   <v>       0.88050533       0.32858967       0.70768878 </v>
   <v>       0.59225344       0.98872996       0.23358772 </v>
   <v>       0.54610930       0.99525784       0.37465704 </v>
   <v>       0.88084311       0.34382644       0.90923825 </v>
   <v>       0.83553171       0.34796997       0.03075314 </v>
   <v>       0.89027684       0.78858988       0.76094997 </v>
   <v>       0.84909549       0.83390312       0.63945239 </v>
   <v>       0.91400888       0.74254525       0.10357763 </v>
   <v>       0.87468829       0.78891283       0.96249799 </v>
   <v>       0.55786505       0.45444125       0.42721155 </v>
   <v>       0.51635901       0.49942469       0.30553903 </v>
   <v>       0.32438712       0.88769436       0.76060034 </v>
   <v>       0.32039413       0.84647029       0.63896165 </v>
   <v>       0.34660635       0.91145751       0.10329263 </v>
   <v>       0.33969950       0.87207394       0.96210359 </v>
   <v>       0.99034657       0.55575993       0.42763571 </v>
   <v>       0.98682114       0.51427159       0.30599038 </v>
   <v>       0.79071335       0.32218629       0.76061203 </v>
   <v>       0.83599164       0.31809622       0.63908230 </v>
   <v>       0.74464969       0.34447808       0.10314494 </v>
   <v>       0.79101816       0.33747665       0.96214317 </v>
   <v>       0.45689351       0.98782050       0.42760529 </v>
   <v>       0.50197419       0.98418837       0.30607207 </v>
   <v>       0.14276713       0.16507887       0.51816110 </v>
   <v>       0.47562753       0.49835670       0.85099562 </v>
   <v>       0.69487228       0.14058941       0.51824529 </v>
   <v>       0.02856651       0.47355342       0.85148061 </v>
   <v>       0.16734930       0.69291311       0.51788254 </v>
   <v>       0.50091393       0.02591205       0.85165755 </v>
   <v>       0.19518483       0.16576497       0.81862413 </v>
   <v>       0.64174662       0.19295144       0.81867164 </v>
   <v>       0.16801787       0.63974865       0.81845153 </v>
   <v>       0.80823049       0.83323862       0.18506060 </v>
   <v>       0.36198240       0.80554299       0.18445212 </v>
   <v>       0.83532431       0.35963371       0.18469221 </v>
   <v>       0.86054309       0.83410556       0.48550539 </v>
   <v>       0.52774435       0.49975430       0.15160443 </v>
   <v>       0.30873465       0.85793083       0.48503418 </v>
   <v>       0.97510827       0.52565604       0.15205670 </v>
   <v>       0.83619002       0.30645098       0.48513028 </v>
   <v>       0.50231915       0.97247035       0.15212602 </v>
   <v>       0.31451586       0.64099823       0.52510284 </v>
   <v>       0.04735083       0.31235972       0.52557929 </v>
   <v>       0.64310231       0.04500319       0.52590208 </v>
   <v>       0.02102306       0.69120151       0.81117470 </v>
   <v>       0.35552342       0.02283254       0.14471099 </v>
   <v>       0.29072163       0.01855460       0.81108630 </v>
   <v>       0.62443061       0.35321818       0.14439659 </v>
   <v>       0.69354094       0.28849574       0.81089557 </v>
   <v>       0.02527725       0.62211550       0.14489720 </v>
   <v>       0.64760273       0.97582959       0.85898571 </v>
   <v>       0.98245449       0.30813826       0.19223307 </v>
   <v>       0.37941586       0.64508795       0.85820093 </v>
   <v>       0.71228971       0.98027331       0.19258563 </v>
   <v>       0.97827280       0.37715927       0.85868153 </v>
   <v>       0.31044036       0.71004294       0.19175942 </v>
   <v>       0.68908514       0.35769999       0.47774938 </v>
   <v>       0.95620745       0.68688785       0.47801695 </v>
   <v>       0.35989683       0.95375103       0.47781126 </v>
  </varray>
 </structure>
</modeling>
