Co–organic framework                  
           1
    25.993290    0.000202   -0.000727
    12.996820   22.509624   -0.000768
    -0.000190   -0.000124    6.819665
   O    C    H    Co
  54  72  18  18
Direct configuration=     1
   0.06153710  0.25191918  0.32245016
   0.03787767  0.29639774  0.96051563
   0.10611777  0.25660523  0.72543868
   0.39355649  0.58455268  0.65490139
   0.68909040  0.05942225  0.32268272
   0.66802218  0.03582133  0.96145712
   0.63987013  0.10386230  0.72573001
   0.02443112  0.39150413  0.65548642
   0.25409099  0.68748962  0.32192457
   0.29841724  0.66687697  0.95935862
   0.25868753  0.63820128  0.72484705
   0.58717750  0.02163614  0.65574746
   0.30013763  0.03431034  0.37609306
   0.23200800  0.07423967  0.61149731
   0.63373534  0.36912666  0.70921121
   0.56550109  0.40850568  0.94454519
   0.27648133  0.07883025  0.01444946
   0.66864403  0.29779772  0.37538468
   0.69655822  0.22982263  0.61126017
   0.99970992  0.63169191  0.71005057
   0.02868259  0.56336502  0.94506230
   0.64758378  0.27418929  0.01418952
   0.03686406  0.66584549  0.37643241
   0.07664560  0.69432110  0.61146563
   0.37140801  0.99743050  0.70971915
   0.41093851  0.02612119  0.94501862
   0.08126992  0.64513814  0.01446523
   0.70304479  0.96460253  0.62796229
   0.77111006  0.92476020  0.39228006
   0.36956271  0.62891254  0.29236897
   0.43800758  0.58951989  0.05783459
   0.72676618  0.92001363  0.98927927
   0.33635846  0.70016046  0.62586595
   0.30762984  0.76858257  0.39138462
   0.00394270  0.36754261  0.29348458
   0.97502090  0.43587314  0.05853367
   0.35683200  0.72397501  0.98839715
   0.96667694  0.33351568  0.62706510
   0.92683194  0.30514632  0.39191587
   0.63174688  0.00100661  0.29437499
   0.59235626  0.97220613  0.05890069
   0.92219089  0.35424216  0.98894517
   0.94193415  0.74737512  0.68120954
   0.96563297  0.70281520  0.04296065
   0.89744633  0.74257417  0.27824997
   0.60981643  0.41365069  0.34768582
   0.31375087  0.93942258  0.68103011
   0.33451639  0.96313035  0.04282124
   0.36317807  0.89486603  0.27792762
   0.97923696  0.60771900  0.34814831
   0.74950303  0.31174744  0.68090681
   0.70487422  0.33269774  0.04216184
   0.74460695  0.36105709  0.27782021
   0.41596386  0.97680624  0.34799910
   0.11319123  0.21057620  0.24275496
   0.15439263  0.16527799  0.36409358
   0.08939901  0.25645575  0.90022015
   0.12870285  0.21011651  0.04128479
   0.44547066  0.54367769  0.57534471
   0.48709011  0.49875703  0.69682797
   0.67880442  0.11106439  0.24293908
   0.68299199  0.15223564  0.36414345
   0.65662892  0.08723711  0.90064878
   0.66374187  0.12655078  0.04147112
   0.01335511  0.44344379  0.57599572
   0.01666481  0.48506244  0.69744954
   0.21278315  0.67711231  0.24231480
   0.16756047  0.68108967  0.36377885
   0.25854763  0.65513365  0.89954382
   0.21230777  0.66205895  0.04084490
   0.54631229  0.01056581  0.57622935
   0.50134121  0.01394846  0.69758874
   0.24866208  0.07431048  0.43658404
   0.20932179  0.12063598  0.29555208
   0.58206831  0.40871621  0.76961040
   0.54235148  0.45471449  0.62847540
   0.22482036  0.12017560  0.09409431
   0.18363121  0.16547220  0.97275412
   0.67992102  0.24642010  0.43624678
   0.67282024  0.20710671  0.29541161
   0.01182762  0.57999166  0.77020831
   0.00549646  0.54030736  0.62905342
   0.65779442  0.22257365  0.09393278
   0.65356397  0.18142465  0.97275014
   0.07675599  0.67751827  0.43662508
   0.12299566  0.67065747  0.29543155
   0.41110948  0.00934914  0.77008602
   0.45719629  0.00290146  0.62904206
   0.12253799  0.65559022  0.09399616
   0.16774229  0.65162700  0.97252426
   0.75452662  0.92467131  0.56727133
   0.79397092  0.87839688  0.70823319
   0.42130394  0.58932540  0.23260872
   0.46094063  0.54335747  0.37393408
   0.77849689  0.87879459  0.90966227
   0.81977489  0.83356707  0.03097615
   0.32451351  0.75181623  0.56612443
   0.33125786  0.79122007  0.70742771
   0.99186012  0.41923594  0.23339140
   0.99819910  0.45890853  0.37458818
   0.34632085  0.77571155  0.90885735
   0.35015443  0.81703947  0.03031810
   0.92674251  0.32191692  0.56679403
   0.88047005  0.32879961  0.70783791
   0.59211986  0.98900452  0.23383493
   0.54603090  0.99539874  0.37482007
   0.88090235  0.34383631  0.90931241
   0.83564405  0.34781712  0.03059252
   0.89023739  0.78862743  0.76094279
   0.84895515  0.83387475  0.63964846
   0.91412410  0.74272686  0.10341266
   0.87475340  0.78903510  0.96240469
   0.55783147  0.45443274  0.42712131
   0.51620565  0.49931080  0.30560550
   0.32440411  0.88763169  0.76057287
   0.32062349  0.84628679  0.63910074
   0.34630450  0.91154641  0.10312272
   0.33953204  0.87210095  0.96198023
   0.99033289  0.55577416  0.42765823
   0.98702518  0.51415623  0.30620689
   0.79070868  0.32228241  0.76055380
   0.83592858  0.31836188  0.63925232
   0.74477606  0.34427584  0.10290138
   0.79110496  0.33737625  0.96200429
   0.45689055  0.98776852  0.42760766
   0.50189678  0.98433583  0.30628124
   0.14301045  0.16516764  0.51791742
   0.47580081  0.49846385  0.85064013
   0.69448121  0.14086729  0.51797510
   0.02823185  0.47378543  0.85127225
   0.16746516  0.69257521  0.51759642
   0.50104912  0.02551152  0.85142679
   0.19502048  0.16558629  0.81894291
   0.64205069  0.19280226  0.81893983
   0.16784763  0.64012714  0.81872266
   0.80841653  0.83340132  0.18478658
   0.36168260  0.80566354  0.18410988
   0.83546849  0.35933828  0.18441840
   0.86031296  0.83403409  0.48582993
   0.52749927  0.49960123  0.15179632
   0.30909785  0.85765635  0.48530670
   0.97544979  0.52544254  0.15239329
   0.83608055  0.30686129  0.48541903
   0.50219949  0.97275872  0.15244952
   0.31448250  0.64104825  0.52533450
   0.04738363  0.31232034  0.52593860
   0.64314055  0.04498790  0.52628171
   0.02098403  0.69116808  0.81084460
   0.35554384  0.02269191  0.14440737
   0.29076755  0.01851924  0.81084580
   0.62447391  0.35328616  0.14402343
   0.69345583  0.28862005  0.81052538
   0.02514110  0.62221848  0.14460995
   0.64758963  0.97593216  0.85938720
   0.98250937  0.30818495  0.19259547
   0.37935615  0.64500021  0.85835199
   0.71221515  0.98030790  0.19292634
   0.97845132  0.37705762  0.85904967
   0.31055778  0.70994454  0.19196324
   0.68909932  0.35769323  0.47735417
   0.95620925  0.68693341  0.47772949
   0.35981069  0.95374502  0.47749508
Co–organic framework                  
           1
    25.982148   -0.000138   -0.000091
    12.990955   22.500987   -0.000319
    -0.000024   -0.000084    6.815922
   O    C    H    Co
  54  72  18  18
Direct configuration=     2
   0.06153683  0.25192249  0.32245915
   0.03786962  0.29641186  0.96052632
   0.10612007  0.25660627  0.72542170
   0.39355406  0.58455774  0.65490817
   0.68908893  0.05942795  0.32270076
   0.66801723  0.03581529  0.96146626
   0.63986720  0.10386300  0.72570359
   0.02442794  0.39151059  0.65550183
   0.25408716  0.68748622  0.32193921
   0.29842797  0.66687104  0.95937452
   0.25868906  0.63819697  0.72482597
   0.58717661  0.02163306  0.65577103
   0.30014525  0.03429757  0.37608270
   0.23200640  0.07423827  0.61151288
   0.63374294  0.36911533  0.70920035
   0.56549940  0.40850349  0.94456233
   0.27648220  0.07882856  0.01445267
   0.66864928  0.29780412  0.37538091
   0.69656098  0.22982288  0.61128327
   0.99971748  0.63169624  0.71004404
   0.02868613  0.56336582  0.94508909
   0.64758425  0.27418361  0.01419225
   0.03685330  0.66585109  0.37642326
   0.07664522  0.69432415  0.61148265
   0.37140158  0.99743552  0.70969974
   0.41093644  0.02612523  0.94503962
   0.08127240  0.64514042  0.01447040
   0.70303570  0.96461442  0.62796839
   0.77111164  0.92476202  0.39226698
   0.36955506  0.62892634  0.29237929
   0.43801027  0.58952375  0.05782161
   0.72676278  0.92001610  0.98926066
   0.33635094  0.70015649  0.62587142
   0.30762546  0.76858282  0.39136026
   0.00393533  0.36753786  0.29349507
   0.97501770  0.43587197  0.05850415
   0.35683076  0.72398023  0.98840314
   0.96668528  0.33351012  0.62707523
   0.92683273  0.30514364  0.39189880
   0.63175573  0.00100150  0.29438858
   0.59235892  0.97220291  0.05888360
   0.92218866  0.35423929  0.98895764
   0.94193579  0.74737293  0.68118464
   0.96564222  0.70280006  0.04295731
   0.89744626  0.74257189  0.27826924
   0.60981942  0.41364654  0.34768682
   0.31375280  0.93941757  0.68101137
   0.33452244  0.96313805  0.04281660
   0.36318157  0.89486543  0.27795267
   0.97923866  0.60771422  0.34814094
   0.74950408  0.31175006  0.68087630
   0.70486512  0.33270208  0.04215610
   0.74460671  0.36106018  0.27783476
   0.41596435  0.97681090  0.34798974
   0.11319474  0.21057528  0.24274562
   0.15439133  0.16528073  0.36404525
   0.08940176  0.25645489  0.90024591
   0.12870034  0.21011616  0.04129569
   0.44547445  0.54368017  0.57533651
   0.48708987  0.49875836  0.69678313
   0.67880254  0.11106656  0.24292568
   0.68298935  0.15223488  0.36409560
   0.65662660  0.08724041  0.90066195
   0.66374497  0.12654921  0.04148700
   0.01335050  0.44344598  0.57597937
   0.01666308  0.48506340  0.69740298
   0.21278416  0.67710797  0.24229993
   0.16756143  0.68108726  0.36373199
   0.25854289  0.65512985  0.89956831
   0.21230659  0.66206213  0.04086774
   0.54631330  0.01056342  0.57620824
   0.50134070  0.01394803  0.69754618
   0.24865877  0.07431208  0.43655757
   0.20932194  0.12063877  0.29554169
   0.58206598  0.40871584  0.76958742
   0.54235271  0.45471560  0.62846425
   0.22481575  0.12017762  0.09410163
   0.18362942  0.16547268  0.97280026
   0.67992373  0.24641417  0.43622439
   0.67281945  0.20710398  0.29539755
   0.01183091  0.57998897  0.77019551
   0.00549422  0.54030713  0.62903854
   0.65779794  0.22256905  0.09394450
   0.65356614  0.18142148  0.97279485
   0.07675803  0.67752164  0.43659883
   0.12299975  0.67065420  0.29541370
   0.41111131  0.00935353  0.77007050
   0.45720110  0.00289946  0.62902570
   0.12253830  0.65559284  0.09400491
   0.16774321  0.65162899  0.97256589
   0.75452849  0.92467106  0.56729186
   0.79397203  0.87839323  0.70824268
   0.42131081  0.58932322  0.23263803
   0.46093981  0.54335648  0.37394429
   0.77850148  0.87879333  0.90965555
   0.81977631  0.83356662  0.03094132
   0.32450858  0.75181822  0.56612962
   0.33125859  0.79122275  0.70744657
   0.99185454  0.41924360  0.23340917
   0.99820107  0.45890812  0.37460244
   0.34631612  0.77571489  0.90885694
   0.35015183  0.81704318  0.03028116
   0.92674086  0.32191289  0.56680484
   0.88046409  0.32880188  0.70785093
   0.59211076  0.98900145  0.23386406
   0.54602851  0.99540164  0.37482745
   0.88090025  0.34383374  0.90930710
   0.83563987  0.34781616  0.03056102
   0.89023583  0.78862517  0.76095478
   0.84895745  0.83387105  0.63969117
   0.91411824  0.74272889  0.10338698
   0.87475576  0.78903461  0.96239297
   0.55782781  0.45443441  0.42712600
   0.51620612  0.49931011  0.30564824
   0.32440802  0.88763096  0.76059166
   0.32062505  0.84628913  0.63914380
   0.34630904  0.91153886  0.10310173
   0.33952903  0.87210354  0.96196544
   0.99033658  0.55577069  0.42766024
   0.98702774  0.51415485  0.30624841
   0.79070822  0.32228466  0.76057370
   0.83592644  0.31836095  0.63929088
   0.74478288  0.34427752  0.10287754
   0.79110783  0.33737131  0.96199245
   0.45689344  0.98777240  0.42761445
   0.50189786  0.98433700  0.30631904
   0.14300731  0.16516840  0.51794930
   0.47579813  0.49846457  0.85067735
   0.69448568  0.14086373  0.51802047
   0.02823579  0.47378109  0.85132186
   0.16746588  0.69257942  0.51764101
   0.50104952  0.02551551  0.85146731
   0.19502343  0.16558598  0.81890860
   0.64204746  0.19280528  0.81889000
   0.16784660  0.64012184  0.81867293
   0.80841250  0.83340125  0.18483251
   0.36168685  0.80566052  0.18416811
   0.83547119  0.35934113  0.18446460
   0.86031588  0.83403354  0.48578949
   0.52750237  0.49960127  0.15176434
   0.30909330  0.85766113  0.48525000
   0.97544560  0.52544544  0.15234503
   0.83607973  0.30685700  0.48537446
   0.50219828  0.97275574  0.15241073
   0.31447983  0.64104907  0.52533593
   0.04738290  0.31231707  0.52593999
   0.64313591  0.04499040  0.52627786
   0.02098742  0.69116732  0.81083878
   0.35554724  0.02269311  0.14440487
   0.29076592  0.01852229  0.81082857
   0.62447427  0.35328602  0.14401311
   0.69346333  0.28861422  0.81051846
   0.02514776  0.62221407  0.14459259
   0.64758579  0.97593183  0.85938802
   0.98250486  0.30818559  0.19259792
   0.37935615  0.64499934  0.85836905
   0.71221711  0.98030807  0.19294935
   0.97844373  0.37706323  0.85905764
   0.31055047  0.70994975  0.19197813
   0.68910325  0.35769074  0.47736138
   0.95621037  0.68693487  0.47771600
   0.35981767  0.95374305  0.47749013
Co–organic framework                  
           1
    25.986810    0.000004   -0.000357
    12.993409   22.504601   -0.000507
    -0.000093   -0.000101    6.817488
   O    C    H    Co
  54  72  18  18
Direct configuration=     3
   0.06153694  0.25192110  0.32245539
   0.03787299  0.29640595  0.96052184
   0.10611910  0.25660583  0.72542881
   0.39355508  0.58455563  0.65490533
   0.68908955  0.05942556  0.32269320
   0.66801930  0.03581782  0.96146243
   0.63986842  0.10386271  0.72571465
   0.02442927  0.39150789  0.65549538
   0.25408876  0.68748765  0.32193308
   0.29842348  0.66687352  0.95936787
   0.25868842  0.63819877  0.72483480
   0.58717698  0.02163435  0.65576116
   0.30014206  0.03430292  0.37608704
   0.23200707  0.07423885  0.61150636
   0.63373976  0.36912007  0.70920489
   0.56550011  0.40850441  0.94455516
   0.27648183  0.07882927  0.01445133
   0.66864708  0.29780144  0.37538249
   0.69655983  0.22982278  0.61127360
   0.99971432  0.63169443  0.71004678
   0.02868465  0.56336548  0.94507787
   0.64758405  0.27418599  0.01419111
   0.03685781  0.66584874  0.37642709
   0.07664538  0.69432287  0.61147553
   0.37140428  0.99743342  0.70970786
   0.41093731  0.02612354  0.94503083
   0.08127136  0.64513947  0.01446824
   0.70303951  0.96460944  0.62796584
   0.77111098  0.92476125  0.39227246
   0.36955826  0.62892056  0.29237497
   0.43800914  0.58952213  0.05782705
   0.72676420  0.92001507  0.98926845
   0.33635409  0.70015815  0.62586913
   0.30762729  0.76858272  0.39137045
   0.00393841  0.36753985  0.29349068
   0.97501904  0.43587246  0.05851651
   0.35683128  0.72397804  0.98840064
   0.96668179  0.33351245  0.62707099
   0.92683240  0.30514476  0.39190595
   0.63175203  0.00100364  0.29438289
   0.59235781  0.97220426  0.05889075
   0.92218959  0.35424049  0.98895242
   0.94193510  0.74737385  0.68119506
   0.96563835  0.70280640  0.04295871
   0.89744629  0.74257285  0.27826117
   0.60981817  0.41364827  0.34768640
   0.31375199  0.93941967  0.68101921
   0.33451991  0.96313483  0.04281854
   0.36318010  0.89486568  0.27794218
   0.97923795  0.60771622  0.34814402
   0.74950364  0.31174896  0.68088907
   0.70486893  0.33270026  0.04215850
   0.74460681  0.36105888  0.27782867
   0.41596415  0.97680895  0.34799366
   0.11319327  0.21057566  0.24274953
   0.15439188  0.16527958  0.36406548
   0.08940061  0.25645525  0.90023512
   0.12870139  0.21011631  0.04129113
   0.44547286  0.54367913  0.57533994
   0.48708997  0.49875780  0.69680191
   0.67880333  0.11106565  0.24293129
   0.68299045  0.15223520  0.36411563
   0.65662757  0.08723903  0.90065644
   0.66374367  0.12654987  0.04148035
   0.01335243  0.44344506  0.57598621
   0.01666380  0.48506300  0.69742247
   0.21278374  0.67710979  0.24230615
   0.16756103  0.68108827  0.36375161
   0.25854487  0.65513144  0.89955806
   0.21230708  0.66206080  0.04085818
   0.54631288  0.01056442  0.57621708
   0.50134091  0.01394821  0.69756400
   0.24866016  0.07431141  0.43656865
   0.20932188  0.12063760  0.29554604
   0.58206696  0.40871599  0.76959704
   0.54235220  0.45471514  0.62846892
   0.22481768  0.12017677  0.09409856
   0.18363017  0.16547248  0.97278095
   0.67992260  0.24641665  0.43623377
   0.67281978  0.20710512  0.29540344
   0.01182953  0.57999010  0.77020087
   0.00549516  0.54030723  0.62904477
   0.65779647  0.22257098  0.09393959
   0.65356523  0.18142280  0.97277613
   0.07675718  0.67752023  0.43660982
   0.12299804  0.67065557  0.29542117
   0.41111055  0.00935169  0.77007700
   0.45719908  0.00290030  0.62903255
   0.12253817  0.65559174  0.09400125
   0.16774283  0.65162816  0.97254846
   0.75452771  0.92467116  0.56728327
   0.79397157  0.87839476  0.70823871
   0.42130793  0.58932413  0.23262576
   0.46094016  0.54335690  0.37394002
   0.77849956  0.87879386  0.90965837
   0.81977571  0.83356681  0.03095590
   0.32451064  0.75181738  0.56612745
   0.33125828  0.79122163  0.70743868
   0.99185688  0.41924039  0.23340173
   0.99820024  0.45890829  0.37459647
   0.34631810  0.77571349  0.90885711
   0.35015292  0.81704162  0.03029662
   0.92674155  0.32191458  0.56680031
   0.88046658  0.32880093  0.70784548
   0.59211457  0.98900274  0.23385187
   0.54602951  0.99540043  0.37482436
   0.88090113  0.34383482  0.90930932
   0.83564162  0.34781656  0.03057421
   0.89023649  0.78862612  0.76094976
   0.84895649  0.83387260  0.63967329
   0.91412069  0.74272804  0.10339773
   0.87475477  0.78903481  0.96239788
   0.55782934  0.45443371  0.42712404
   0.51620592  0.49931040  0.30563035
   0.32440638  0.88763126  0.76058379
   0.32062440  0.84628815  0.63912577
   0.34630714  0.91154202  0.10311052
   0.33953029  0.87210245  0.96197163
   0.99033504  0.55577214  0.42765940
   0.98702667  0.51415542  0.30623103
   0.79070841  0.32228372  0.76056537
   0.83592734  0.31836134  0.63927474
   0.74478002  0.34427682  0.10288752
   0.79110663  0.33737338  0.96199741
   0.45689223  0.98777078  0.42761161
   0.50189741  0.98433651  0.30630322
   0.14300862  0.16516808  0.51793595
   0.47579925  0.49846427  0.85066177
   0.69448381  0.14086522  0.51800148
   0.02823414  0.47378291  0.85130109
   0.16746558  0.69257765  0.51762234
   0.50104935  0.02551384  0.85145035
   0.19502220  0.16558611  0.81892296
   0.64204881  0.19280402  0.81891086
   0.16784703  0.64012406  0.81869375
   0.80841418  0.83340128  0.18481328
   0.36168507  0.80566179  0.18414373
   0.83547006  0.35933994  0.18444526
   0.86031466  0.83403377  0.48580642
   0.52750108  0.49960125  0.15177773
   0.30909521  0.85765913  0.48527373
   0.97544735  0.52544423  0.15236523
   0.83608008  0.30685879  0.48539312
   0.50219878  0.97275699  0.15242697
   0.31448094  0.64104873  0.52533533
   0.04738321  0.31231844  0.52593941
   0.64313785  0.04498935  0.52627947
   0.02098600  0.69116764  0.81084122
   0.35554582  0.02269261  0.14440592
   0.29076660  0.01852101  0.81083578
   0.62447412  0.35328608  0.14401743
   0.69346019  0.28861666  0.81052136
   0.02514497  0.62221592  0.14459986
   0.64758740  0.97593197  0.85938768
   0.98250675  0.30818532  0.19259690
   0.37935615  0.64499970  0.85836190
   0.71221629  0.98030800  0.19293972
   0.97844691  0.37706088  0.85905430
   0.31055353  0.70994757  0.19197190
   0.68910161  0.35769179  0.47735836
   0.95620990  0.68693426  0.47772165
   0.35981475  0.95374387  0.47749221
Co–organic framework                  
           1
    25.981961   -0.000239    0.000178
    12.990773   22.501304   -0.000168
     0.000047   -0.000079    6.816654
   O    C    H    Co
  54  72  18  18
Direct configuration=     4
   0.06152283  0.25193083  0.32249419
   0.03785497  0.29642738  0.96055833
   0.10613707  0.25660271  0.72532207
   0.39353990  0.58456665  0.65494181
   0.68909650  0.05941210  0.32274459
   0.66801722  0.03580043  0.96149802
   0.63985397  0.10387925  0.72560068
   0.02443456  0.39149445  0.65554212
   0.25409575  0.68749243  0.32198192
   0.29844054  0.66687004  0.95940663
   0.25868510  0.63818322  0.72473290
   0.58718402  0.02163972  0.65580962
   0.30015922  0.03428343  0.37604983
   0.23198891  0.07424219  0.61161385
   0.63375910  0.36909993  0.70916952
   0.56548231  0.40850611  0.94466521
   0.27649610  0.07882145  0.01442179
   0.66864981  0.29781650  0.37535096
   0.69657414  0.22980604  0.61138186
   0.99971873  0.63171157  0.71001061
   0.02870026  0.56334944  0.94519346
   0.64757660  0.27419896  0.01415820
   0.03683903  0.66585124  0.37639000
   0.07664969  0.69433750  0.61157793
   0.37138736  0.99743577  0.70966399
   0.41093970  0.02613998  0.94514343
   0.08126338  0.64513341  0.01443714
   0.70301991  0.96462889  0.62799715
   0.77112943  0.92475881  0.39215945
   0.36954303  0.62893954  0.29241043
   0.43802905  0.58952138  0.05772286
   0.72674778  0.92002386  0.98928405
   0.33634969  0.70014043  0.62590254
   0.30760976  0.76860030  0.39124693
   0.00393304  0.36752666  0.29352621
   0.97500385  0.43588842  0.05840210
   0.35683843  0.72396371  0.98844410
   0.96669996  0.33350979  0.62710739
   0.92682861  0.30512898  0.39178636
   0.63176540  0.00100109  0.29442237
   0.59235437  0.97218919  0.05878684
   0.92219523  0.35424566  0.98899520
   0.94195059  0.74736518  0.68114273
   0.96565477  0.70278635  0.04292875
   0.89742919  0.74257559  0.27837249
   0.60983387  0.41363887  0.34765595
   0.31374569  0.93943467  0.68096913
   0.33452396  0.96314957  0.04278853
   0.36319528  0.89484856  0.27805111
   0.97923131  0.60773051  0.34810016
   0.74949667  0.31174332  0.68083532
   0.70485325  0.33270131  0.04212474
   0.74461168  0.36107395  0.27793351
   0.41595731  0.97680603  0.34795334
   0.11318257  0.21058507  0.24275565
   0.15438738  0.16527670  0.36414758
   0.08940015  0.25645734  0.90026828
   0.12869351  0.21012242  0.04127853
   0.44546354  0.54368985  0.57535168
   0.48708541  0.49875537  0.69688288
   0.67880485  0.11105868  0.24293598
   0.68299819  0.15222878  0.36420792
   0.65662609  0.08724066  0.90068233
   0.66374521  0.12654079  0.04145936
   0.01335183  0.44344039  0.57599399
   0.01667156  0.48505724  0.69751050
   0.21278988  0.67710934  0.24231402
   0.16755878  0.68109549  0.36384358
   0.25854597  0.65512833  0.89958791
   0.21231259  0.66206145  0.04084012
   0.54631895  0.01056617  0.57622316
   0.50134015  0.01395702  0.69764574
   0.24865951  0.07431111  0.43653073
   0.20932759  0.12063381  0.29555757
   0.58206574  0.40871531  0.76956108
   0.54235798  0.45471050  0.62848050
   0.22482588  0.12017010  0.09409292
   0.18363363  0.16547662  0.97269726
   0.67992481  0.24641416  0.43620379
   0.67282010  0.20710999  0.29541817
   0.01183237  0.57998637  0.77017228
   0.00549444  0.54031441  0.62906128
   0.65779655  0.22257357  0.09393625
   0.65355774  0.18142716  0.97268383
   0.07675835  0.67752309  0.43657809
   0.12299299  0.67065373  0.29543295
   0.41111369  0.00935496  0.77004404
   0.45719391  0.00289996  0.62904659
   0.12253499  0.65559105  0.09399685
   0.16774595  0.65162038  0.97245395
   0.75452806  0.92467075  0.56732585
   0.79396688  0.87839821  0.70822336
   0.42130791  0.58932790  0.23266440
   0.46093468  0.54336224  0.37392945
   0.77849216  0.87880003  0.90966714
   0.81977103  0.83356393  0.03104326
   0.32450726  0.75182279  0.56616437
   0.33125678  0.79121669  0.70741839
   0.99185274  0.41924251  0.23343045
   0.99820013  0.45890180  0.37457465
   0.34631637  0.77571240  0.90886857
   0.35015977  0.81703684  0.03039447
   0.92673789  0.32191277  0.56683913
   0.88047060  0.32880174  0.70783094
   0.59211574  0.98900076  0.23388115
   0.54603396  0.99540279  0.37481244
   0.88090275  0.34383542  0.90931721
   0.83563956  0.34782433  0.03066488
   0.89024758  0.78861580  0.76093479
   0.84896245  0.83387371  0.63959104
   0.91412273  0.74272371  0.10336180
   0.87476170  0.78902805  0.96241394
   0.55784019  0.45442523  0.42711640
   0.51621068  0.49931398  0.30554931
   0.32440598  0.88763855  0.76057344
   0.32061662  0.84629469  0.63903604
   0.34631021  0.91154275  0.10308208
   0.33952947  0.87211046  0.96199395
   0.99033549  0.55577677  0.42765251
   0.98701976  0.51416000  0.30613721
   0.79070129  0.32228122  0.76055495
   0.83592912  0.31835194  0.63919049
   0.74478055  0.34427745  0.10285866
   0.79110070  0.33736963  0.96201414
   0.45688713  0.98777092  0.42760461
   0.50190040  0.98432875  0.30621228
   0.14300371  0.16516916  0.51798144
   0.47579508  0.49846507  0.85071208
   0.69448891  0.14086080  0.51804758
   0.02823853  0.47377807  0.85134949
   0.16746602  0.69258240  0.51766722
   0.50104942  0.02551902  0.85149840
   0.19502636  0.16558605  0.81887578
   0.64204520  0.19280709  0.81886102
   0.16784682  0.64011823  0.81864387
   0.80840896  0.83340084  0.18487266
   0.36168975  0.80565907  0.18420215
   0.83547184  0.35934392  0.18450274
   0.86031945  0.83403275  0.48575302
   0.52750599  0.49960147  0.15172788
   0.30909032  0.85766471  0.48521921
   0.97544241  0.52544757  0.15231325
   0.83607918  0.30685310  0.48533885
   0.50219810  0.97275269  0.15237588
   0.31447621  0.64104472  0.52533716
   0.04738853  0.31231403  0.52593640
   0.64312890  0.04499746  0.52627355
   0.02099050  0.69117218  0.81083758
   0.35555008  0.02269848  0.14440753
   0.29075945  0.01852471  0.81082153
   0.62446941  0.35328621  0.14401353
   0.69347219  0.28860538  0.81051685
   0.02515520  0.62220585  0.14458954
   0.64758270  0.97592662  0.85938593
   0.98250169  0.30818099  0.19259880
   0.37936210  0.64499793  0.85837851
   0.71222383  0.98030672  0.19295979
   0.97843414  0.37707230  0.85905999
   0.31054165  0.70995815  0.19198333
   0.68910613  0.35769452  0.47736451
   0.95620470  0.68693700  0.47771225
   0.35982587  0.95373476  0.47748636
Co–organic framework                  
           1
    25.984319   -0.000120   -0.000082
    12.992055   22.502907   -0.000333
    -0.000021   -0.000090    6.817059
   O    C    H    Co
  54  72  18  18
Direct configuration=     5
   0.06152970  0.25192610  0.32247532
   0.03786374  0.29641696  0.96054059
   0.10612833  0.25660423  0.72537399
   0.39354728  0.58456129  0.65492407
   0.68909312  0.05941865  0.32271960
   0.66801823  0.03580889  0.96148071
   0.63986100  0.10387120  0.72565611
   0.02443199  0.39150099  0.65551938
   0.25409235  0.68749010  0.32195816
   0.29843224  0.66687173  0.95938778
   0.25868672  0.63819078  0.72478246
   0.58718060  0.02163711  0.65578605
   0.30015087  0.03429291  0.37606793
   0.23199774  0.07424057  0.61156157
   0.63374970  0.36910973  0.70918673
   0.56549097  0.40850528  0.94461168
   0.27648916  0.07882525  0.01443615
   0.66864848  0.29780918  0.37536630
   0.69656718  0.22981418  0.61132920
   0.99971658  0.63170323  0.71002820
   0.02869267  0.56335724  0.94513724
   0.64758022  0.27419265  0.01417421
   0.03684816  0.66585003  0.37640804
   0.07664759  0.69433038  0.61152812
   0.37139559  0.99743463  0.70968533
   0.41093853  0.02613199  0.94508866
   0.08126726  0.64513636  0.01445226
   0.70302944  0.96461943  0.62798192
   0.77112045  0.92476000  0.39221441
   0.36955044  0.62893031  0.29239318
   0.43801936  0.58952174  0.05777354
   0.72675577  0.92001958  0.98927646
   0.33635183  0.70014905  0.62588629
   0.30761829  0.76859175  0.39130701
   0.00393565  0.36753308  0.29350892
   0.97501124  0.43588066  0.05845775
   0.35683495  0.72397068  0.98842296
   0.96669113  0.33351108  0.62708968
   0.92683045  0.30513666  0.39184453
   0.63175889  0.00100233  0.29440317
   0.59235605  0.97219652  0.05883738
   0.92219249  0.35424315  0.98897439
   0.94194306  0.74736940  0.68116818
   0.96564678  0.70279610  0.04294332
   0.89743751  0.74257425  0.27831835
   0.60982623  0.41364344  0.34767076
   0.31374876  0.93942737  0.68099349
   0.33452199  0.96314240  0.04280313
   0.36318790  0.89485689  0.27799813
   0.97923454  0.60772356  0.34812149
   0.74950006  0.31174606  0.68086146
   0.70486088  0.33270080  0.04214116
   0.74460931  0.36106662  0.27788252
   0.41596064  0.97680745  0.34797295
   0.11318778  0.21058049  0.24275267
   0.15438957  0.16527810  0.36410765
   0.08940037  0.25645632  0.90025215
   0.12869735  0.21011945  0.04128466
   0.44546808  0.54368464  0.57534597
   0.48708763  0.49875656  0.69684350
   0.67880411  0.11106207  0.24293370
   0.68299443  0.15223190  0.36416303
   0.65662681  0.08723987  0.90066974
   0.66374446  0.12654520  0.04146957
   0.01335212  0.44344267  0.57599021
   0.01666779  0.48506004  0.69746769
   0.21278689  0.67710956  0.24231019
   0.16755987  0.68109198  0.36379884
   0.25854544  0.65512984  0.89957339
   0.21230991  0.66206113  0.04084890
   0.54631600  0.01056532  0.57622020
   0.50134052  0.01395274  0.69760598
   0.24865982  0.07431125  0.43654918
   0.20932481  0.12063565  0.29555196
   0.58206633  0.40871564  0.76957857
   0.54235517  0.45471275  0.62847487
   0.22482190  0.12017334  0.09409566
   0.18363195  0.16547461  0.97273796
   0.67992373  0.24641537  0.43621837
   0.67281995  0.20710762  0.29541101
   0.01183099  0.57998818  0.77018618
   0.00549479  0.54031091  0.62905325
   0.65779651  0.22257231  0.09393788
   0.65356138  0.18142504  0.97272872
   0.07675778  0.67752170  0.43659352
   0.12299545  0.67065463  0.29542722
   0.41111216  0.00935337  0.77006007
   0.45719643  0.00290012  0.62903976
   0.12253654  0.65559139  0.09399899
   0.16774443  0.65162416  0.97249992
   0.75452789  0.92467095  0.56730514
   0.79396916  0.87839653  0.70823082
   0.42130792  0.58932607  0.23264561
   0.46093734  0.54335964  0.37393459
   0.77849576  0.87879703  0.90966287
   0.81977331  0.83356533  0.03100077
   0.32450891  0.75182016  0.56614641
   0.33125751  0.79121909  0.70742825
   0.99185475  0.41924148  0.23341648
   0.99820019  0.45890496  0.37458526
   0.34631721  0.77571293  0.90886300
   0.35015644  0.81703917  0.03034688
   0.92673967  0.32191365  0.56682025
   0.88046865  0.32880135  0.70783801
   0.59211517  0.98900172  0.23386691
   0.54603180  0.99540164  0.37481824
   0.88090196  0.34383513  0.90931337
   0.83564056  0.34782055  0.03062078
   0.89024218  0.78862082  0.76094207
   0.84895955  0.83387317  0.63963104