   2   2   0   0
  0.1350000E+05  0.3000000E-08  0.3000000E-08  0.3000000E-08  0.5000000E-15
  1.000000000000000E-004
  CAR 
 Co–organic framework                  
      1.62841735    -30.67224018  301     -8.80200331      1.00000000
    -30.672  0.0000E+00  0.0000E+00  0.0000E+00  0.0000E+00
    -30.565  0.0000E+00  0.0000E+00  0.0000E+00  0.0000E+00
    -30.457  0.0000E+00  0.0000E+00  0.0000E+00  0.0000E+00
    -30.349  0.0000E+00  0.0000E+00  0.0000E+00  0.0000E+00
    -30.242  0.0000E+00  0.0000E+00  0.0000E+00  0.0000E+00
    -30.134  0.0000E+00  0.0000E+00  0.0000E+00  0.0000E+00
    -30.026  0.0000E+00  0.0000E+00  0.0000E+00  0.0000E+00
    -29.919  0.0000E+00  0.0000E+00  0.0000E+00  0.0000E+00
    -29.811  0.0000E+00  0.0000E+00  0.0000E+00  0.0000E+00
    -29.703  0.0000E+00  0.0000E+00  0.0000E+00  0.0000E+00
    -29.596  0.0000E+00  0.0000E+00  0.0000E+00  0.0000E+00
    -29.488  0.4640E-17  0.4640E-17  0.4996E-18  0.4996E-18
    -29.380  0.2903E-08  0.2903E-08  0.3126E-09  0.3126E-09
    -29.273  0.2444E-03  0.2444E-03  0.2632E-04  0.2632E-04
    -29.165  0.7798E-02  0.7798E-02  0.8659E-03  0.8659E-03
    -29.057  0.1245E-02  0.1245E-02  0.1000E-02  0.1000E-02
    -28.950  0.1526E-06  0.1526E-06  0.1000E-02  0.1000E-02
    -28.842  0.2836E-14  0.2836E-14  0.1000E-02  0.1000E-02
    -28.734  0.0000E+00  0.0000E+00  0.1000E-02  0.1000E-02
    -28.627  0.0000E+00  0.0000E+00  0.1000E-02  0.1000E-02
    -28.519  0.0000E+00  0.0000E+00  0.1000E-02  0.1000E-02
    -28.411  0.0000E+00  0.0000E+00  0.1000E-02  0.1000E-02
    -28.304  0.0000E+00  0.0000E+00  0.1000E-02  0.1000E-02
    -28.196  0.0000E+00  0.0000E+00  0.1000E-02  0.1000E-02
    -28.088  0.0000E+00  0.0000E+00  0.1000E-02  0.1000E-02
    -27.981  0.0000E+00  0.0000E+00  0.1000E-02  0.1000E-02
    -27.873  0.0000E+00  0.0000E+00  0.1000E-02  0.1000E-02
    -27.765  0.0000E+00  0.0000E+00  0.1000E-02  0.1000E-02
    -27.658  0.0000E+00  0.0000E+00  0.1000E-02  0.1000E-02
    -27.550  0.0000E+00  0.0000E+00  0.1000E-02  0.1000E-02
    -27.442  0.0000E+00  0.0000E+00  0.1000E-02  0.1000E-02
    -27.335  0.0000E+00  0.0000E+00  0.1000E-02  0.1000E-02
    -27.227  0.0000E+00  0.0000E+00  0.1000E-02  0.1000E-02
    -27.119  0.0000E+00  0.0000E+00  0.1000E-02  0.1000E-02
    -27.011  0.0000E+00  0.0000E+00  0.1000E-02  0.1000E-02
    -26.904  0.0000E+00  0.0000E+00  0.1000E-02  0.1000E-02
    -26.796  0.0000E+00  0.0000E+00  0.1000E-02  0.1000E-02
    -26.688  0.0000E+00  0.0000E+00  0.1000E-02  0.1000E-02
    -26.581  0.0000E+00  0.0000E+00  0.1000E-02  0.1000E-02
    -26.473  0.0000E+00  0.0000E+00  0.1000E-02  0.1000E-02
    -26.365  0.0000E+00  0.0000E+00  0.1000E-02  0.1000E-02
    -26.258  0.0000E+00  0.0000E+00  0.1000E-02  0.1000E-02
    -26.150  0.0000E+00  0.0000E+00  0.1000E-02  0.1000E-02
    -26.042  0.0000E+00  0.0000E+00  0.1000E-02  0.1000E-02
    -25.935  0.0000E+00  0.0000E+00  0.1000E-02  0.1000E-02
    -25.827  0.0000E+00  0.0000E+00  0.1000E-02  0.1000E-02
    -25.719  0.0000E+00  0.0000E+00  0.1000E-02  0.1000E-02
    -25.612  0.0000E+00  0.0000E+00  0.1000E-02  0.1000E-02
    -25.504  0.0000E+00  0.0000E+00  0.1000E-02  0.1000E-02
    -25.396  0.0000E+00  0.0000E+00  0.1000E-02  0.1000E-02
    -25.289  0.0000E+00  0.0000E+00  0.1000E-02  0.1000E-02
    -25.181  0.0000E+00  0.0000E+00  0.1000E-02  0.1000E-02
    -25.073  0.0000E+00  0.0000E+00  0.1000E-02  0.1000E-02
    -24.966  0.0000E+00  0.0000E+00  0.1000E-02  0.1000E-02
    -24.858  0.0000E+00  0.0000E+00  0.1000E-02  0.1000E-02
    -24.750  0.0000E+00  0.0000E+00  0.1000E-02  0.1000E-02
    -24.643  0.0000E+00  0.0000E+00  0.1000E-02  0.1000E-02
    -24.535  0.0000E+00  0.0000E+00  0.1000E-02  0.1000E-02
    -24.427  0.0000E+00  0.0000E+00  0.1000E-02  0.1000E-02
    -24.320  0.0000E+00  0.0000E+00  0.1000E-02  0.1000E-02
    -24.212  0.0000E+00  0.0000E+00  0.1000E-02  0.1000E-02
    -24.104  0.0000E+00  0.0000E+00  0.1000E-02  0.1000E-02
    -23.997  0.0000E+00  0.0000E+00  0.1000E-02  0.1000E-02
    -23.889  0.0000E+00  0.0000E+00  0.1000E-02  0.1000E-02
    -23.781  0.0000E+00  0.0000E+00  0.1000E-02  0.1000E-02
    -23.674  0.0000E+00  0.0000E+00  0.1000E-02  0.1000E-02
    -23.566  0.0000E+00  0.0000E+00  0.1000E-02  0.1000E-02
    -23.458  0.0000E+00  0.0000E+00  0.1000E-02  0.1000E-02
    -23.351  0.0000E+00  0.0000E+00  0.1000E-02  0.1000E-02
    -23.243  0.0000E+00  0.0000E+00  0.1000E-02  0.1000E-02
    -23.135  0.0000E+00  0.0000E+00  0.1000E-02  0.1000E-02
    -23.028  0.0000E+00  0.0000E+00  0.1000E-02  0.1000E-02
    -22.920  0.0000E+00  0.0000E+00  0.1000E-02  0.1000E-02
    -22.812  0.0000E+00  0.0000E+00  0.1000E-02  0.1000E-02
    -22.705  0.0000E+00  0.0000E+00  0.1000E-02  0.1000E-02
    -22.597  0.0000E+00  0.0000E+00  0.1000E-02  0.1000E-02
    -22.489  0.0000E+00  0.0000E+00  0.1000E-02  0.1000E-02
    -22.382  0.0000E+00  0.0000E+00  0.1000E-02  0.1000E-02
    -22.274  0.0000E+00  0.0000E+00  0.1000E-02  0.1000E-02
    -22.166  0.0000E+00  0.0000E+00  0.1000E-02  0.1000E-02
    -22.059  0.0000E+00  0.0000E+00  0.1000E-02  0.1000E-02
    -21.951  0.0000E+00  0.0000E+00  0.1000E-02  0.1000E-02
    -21.843  0.0000E+00  0.0000E+00  0.1000E-02  0.1000E-02
    -21.736  0.0000E+00  0.0000E+00  0.1000E-02  0.1000E-02
    -21.628  0.0000E+00  0.0000E+00  0.1000E-02  0.1000E-02
    -21.520  0.0000E+00  0.0000E+00  0.1000E-02  0.1000E-02
    -21.413  0.0000E+00  0.0000E+00  0.1000E-02  0.1000E-02
    -21.305  0.0000E+00  0.0000E+00  0.1000E-02  0.1000E-02
    -21.197  0.0000E+00  0.0000E+00  0.1000E-02  0.1000E-02
    -21.090  0.0000E+00  0.0000E+00  0.1000E-02  0.1000E-02
    -20.982  0.0000E+00  0.0000E+00  0.1000E-02  0.1000E-02
    -20.874  0.0000E+00  0.0000E+00  0.1000E-02  0.1000E-02
    -20.767  0.0000E+00  0.0000E+00  0.1000E-02  0.1000E-02
    -20.659  0.0000E+00  0.0000E+00  0.1000E-02  0.1000E-02
    -20.551  0.0000E+00  0.0000E+00  0.1000E-02  0.1000E-02
    -20.444  0.0000E+00  0.0000E+00  0.1000E-02  0.1000E-02
    -20.336  0.0000E+00  0.0000E+00  0.1000E-02  0.1000E-02
    -20.228  0.0000E+00  0.0000E+00  0.1000E-02  0.1000E-02
    -20.121  0.0000E+00  0.0000E+00  0.1000E-02  0.1000E-02
    -20.013  0.0000E+00  0.0000E+00  0.1000E-02  0.1000E-02
    -19.905  0.0000E+00  0.0000E+00  0.1000E-02  0.1000E-02
    -19.798  0.0000E+00  0.0000E+00  0.1000E-02  0.1000E-02
    -19.690  0.0000E+00  0.0000E+00  0.1000E-02  0.1000E-02
    -19.582  0.0000E+00  0.0000E+00  0.1000E-02  0.1000E-02
    -19.475  0.0000E+00  0.0000E+00  0.1000E-02  0.1000E-02
    -19.367  0.0000E+00  0.0000E+00  0.1000E-02  0.1000E-02
    -19.259  0.0000E+00  0.0000E+00  0.1000E-02  0.1000E-02
    -19.152  0.0000E+00  0.0000E+00  0.1000E-02  0.1000E-02
    -19.044  0.0000E+00  0.0000E+00  0.1000E-02  0.1000E-02
    -18.936  0.0000E+00  0.0000E+00  0.1000E-02  0.1000E-02
    -18.829  0.0000E+00  0.0000E+00  0.1000E-02  0.1000E-02
    -18.721  0.0000E+00  0.0000E+00  0.1000E-02  0.1000E-02
    -18.613  0.0000E+00  0.0000E+00  0.1000E-02  0.1000E-02
    -18.506  0.0000E+00  0.0000E+00  0.1000E-02  0.1000E-02
    -18.398  0.0000E+00  0.0000E+00  0.1000E-02  0.1000E-02
    -18.290  0.0000E+00  0.0000E+00  0.1000E-02  0.1000E-02
    -18.183  0.0000E+00  0.0000E+00  0.1000E-02  0.1000E-02
    -18.075  0.0000E+00  0.0000E+00  0.1000E-02  0.1000E-02
    -17.967  0.0000E+00  0.0000E+00  0.1000E-02  0.1000E-02
    -17.860  0.0000E+00  0.0000E+00  0.1000E-02  0.1000E-02
    -17.752  0.0000E+00  0.0000E+00  0.1000E-02  0.1000E-02
    -17.644  0.0000E+00  0.0000E+00  0.1000E-02  0.1000E-02
    -17.537  0.0000E+00  0.0000E+00  0.1000E-02  0.1000E-02
    -17.429  0.0000E+00  0.0000E+00  0.1000E-02  0.1000E-02
    -17.321  0.0000E+00  0.0000E+00  0.1000E-02  0.1000E-02
    -17.214  0.0000E+00  0.0000E+00  0.1000E-02  0.1000E-02
    -17.106  0.0000E+00  0.0000E+00  0.1000E-02  0.1000E-02
    -16.998  0.0000E+00  0.0000E+00  0.1000E-02  0.1000E-02
    -16.891  0.0000E+00  0.0000E+00  0.1000E-02  0.1000E-02
    -16.783  0.0000E+00  0.0000E+00  0.1000E-02  0.1000E-02
    -16.675  0.0000E+00  0.0000E+00  0.1000E-02  0.1000E-02
    -16.568  0.0000E+00  0.0000E+00  0.1000E-02  0.1000E-02
    -16.460  0.0000E+00  0.0000E+00  0.1000E-02  0.1000E-02
    -16.352  0.0000E+00  0.0000E+00  0.1000E-02  0.1000E-02
    -16.245  0.0000E+00  0.0000E+00  0.1000E-02  0.1000E-02
    -16.137  0.0000E+00  0.0000E+00  0.1000E-02  0.1000E-02
    -16.029  0.0000E+00  0.0000E+00  0.1000E-02  0.1000E-02
    -15.922  0.0000E+00  0.0000E+00  0.1000E-02  0.1000E-02
    -15.814  0.0000E+00  0.0000E+00  0.1000E-02  0.1000E-02
    -15.706  0.0000E+00  0.0000E+00  0.1000E-02  0.1000E-02
    -15.599  0.0000E+00  0.0000E+00  0.1000E-02  0.1000E-02
    -15.491  0.0000E+00  0.0000E+00  0.1000E-02  0.1000E-02
    -15.383  0.0000E+00  0.0000E+00  0.1000E-02  0.1000E-02
    -15.276  0.0000E+00  0.0000E+00  0.1000E-02  0.1000E-02
    -15.168  0.0000E+00  0.0000E+00  0.1000E-02  0.1000E-02
    -15.060  0.0000E+00  0.0000E+00  0.1000E-02  0.1000E-02
    -14.953  0.0000E+00  0.0000E+00  0.1000E-02  0.1000E-02
    -14.845  0.0000E+00  0.0000E+00  0.1000E-02  0.1000E-02
    -14.737  0.0000E+00  0.0000E+00  0.1000E-02  0.1000E-02
    -14.630  0.0000E+00  0.0000E+00  0.1000E-02  0.1000E-02
    -14.522  0.0000E+00  0.0000E+00  0.1000E-02  0.1000E-02
    -14.414  0.5156E-17  0.5156E-17  0.1000E-02  0.1000E-02
    -14.307  0.3137E-08  0.3137E-08  0.1000E-02  0.1000E-02
    -14.199  0.2530E-03  0.2530E-03  0.1027E-02  0.1027E-02
    -14.091  0.7819E-02  0.7819E-02  0.1869E-02  0.1869E-02
    -13.984  0.1215E-02  0.1215E-02  0.2000E-02  0.2000E-02
    -13.876  0.1429E-06  0.1429E-06  0.2000E-02  0.2000E-02
    -13.768  0.2541E-14  0.2541E-14  0.2000E-02  0.2000E-02
    -13.661  0.0000E+00  0.0000E+00  0.2000E-02  0.2000E-02
    -13.553  0.0000E+00  0.0000E+00  0.2000E-02  0.2000E-02
    -13.445  0.0000E+00  0.0000E+00  0.2000E-02  0.2000E-02
    -13.338  0.0000E+00  0.0000E+00  0.2000E-02  0.2000E-02
    -13.230  0.0000E+00  0.0000E+00  0.2000E-02  0.2000E-02
    -13.122  0.0000E+00  0.0000E+00  0.2000E-02  0.2000E-02
    -13.015  0.0000E+00  0.0000E+00  0.2000E-02  0.2000E-02
    -12.907  0.0000E+00  0.0000E+00  0.2000E-02  0.2000E-02
    -12.799  0.0000E+00  0.0000E+00  0.2000E-02  0.2000E-02
    -12.692  0.0000E+00  0.0000E+00  0.2000E-02  0.2000E-02
    -12.584  0.0000E+00  0.0000E+00  0.2000E-02  0.2000E-02
    -12.476  0.0000E+00  0.0000E+00  0.2000E-02  0.2000E-02
    -12.369  0.0000E+00  0.0000E+00  0.2000E-02  0.2000E-02
    -12.261  0.0000E+00  0.0000E+00  0.2000E-02  0.2000E-02
    -12.153  0.0000E+00  0.0000E+00  0.2000E-02  0.2000E-02
    -12.046  0.6187E-17  0.6187E-17  0.2000E-02  0.2000E-02
    -11.938  0.4361E-08  0.4361E-08  0.2000E-02  0.2000E-02
    -11.830  0.4297E-03  0.4297E-03  0.2046E-02  0.2046E-02
    -11.723  0.1543E-01  0.1543E-01  0.3707E-02  0.3707E-02
    -11.615  0.2718E-02  0.2718E-02  0.4000E-02  0.4000E-02
    -11.507  0.3876E-06  0.3876E-06  0.4000E-02  0.4000E-02
    -11.400  0.8481E-14  0.8481E-14  0.4000E-02  0.4000E-02
    -11.292  0.0000E+00  0.0000E+00  0.4000E-02  0.4000E-02
    -11.184  0.0000E+00  0.0000E+00  0.4000E-02  0.4000E-02
    -11.077  0.0000E+00  0.0000E+00  0.4000E-02  0.4000E-02
    -10.969  0.0000E+00  0.0000E+00  0.4000E-02  0.4000E-02
    -10.861  0.0000E+00  0.0000E+00  0.4000E-02  0.4000E-02
    -10.754  0.0000E+00  0.0000E+00  0.4000E-02  0.4000E-02
    -10.646  0.0000E+00  0.0000E+00  0.4000E-02  0.4000E-02
    -10.538  0.0000E+00  0.0000E+00  0.4000E-02  0.4000E-02
    -10.430  0.0000E+00  0.0000E+00  0.4000E-02  0.4000E-02
    -10.323  0.0000E+00  0.0000E+00  0.4000E-02  0.4000E-02
    -10.215  0.0000E+00  0.0000E+00  0.4000E-02  0.4000E-02
    -10.107  0.0000E+00  0.0000E+00  0.4000E-02  0.4000E-02
    -10.000  0.0000E+00  0.0000E+00  0.4000E-02  0.4000E-02
     -9.892  0.0000E+00  0.0000E+00  0.4000E-02  0.4000E-02
     -9.784  0.0000E+00  0.0000E+00  0.4000E-02  0.4000E-02
     -9.677  0.0000E+00  0.0000E+00  0.4000E-02  0.4000E-02
     -9.569  0.0000E+00  0.0000E+00  0.4000E-02  0.4000E-02
     -9.461  0.0000E+00  0.0000E+00  0.4000E-02  0.4000E-02
     -9.354  0.0000E+00  0.0000E+00  0.4000E-02  0.4000E-02
     -9.246  0.3305E-09  0.3305E-09  0.4000E-02  0.4000E-02
     -9.138  0.8886E-04  0.8887E-04  0.4010E-02  0.4010E-02
     -9.031  0.6959E-02  0.6959E-02  0.4759E-02  0.4759E-02
     -8.923  0.2239E-02  0.2239E-02  0.5000E-02  0.5000E-02
     -8.815  0.8284E-06  0.8284E-06  0.5000E-02  0.5000E-02
     -8.708  0.5095E-13  0.5095E-13  0.5000E-02  0.5000E-02
     -8.600  0.0000E+00  0.0000E+00  0.5000E-02  0.5000E-02
     -8.492  0.0000E+00  0.0000E+00  0.5000E-02  0.5000E-02
     -8.385  0.0000E+00  0.0000E+00  0.5000E-02  0.5000E-02
     -8.277  0.0000E+00  0.0000E+00  0.5000E-02  0.5000E-02
     -8.169  0.0000E+00  0.0000E+00  0.5000E-02  0.5000E-02
     -8.062  0.0000E+00  0.0000E+00  0.5000E-02  0.5000E-02
     -7.954  0.0000E+00  0.0000E+00  0.5000E-02  0.5000E-02
     -7.846  0.0000E+00  0.0000E+00  0.5000E-02  0.5000E-02
     -7.739  0.0000E+00  0.0000E+00  0.5000E-02  0.5000E-02
     -7.631  0.0000E+00  0.0000E+00  0.5000E-02  0.5000E-02
     -7.523  0.0000E+00  0.0000E+00  0.5000E-02  0.5000E-02
     -7.416  0.0000E+00  0.0000E+00  0.5000E-02  0.5000E-02
     -7.308  0.0000E+00  0.0000E+00  0.5000E-02  0.5000E-02
     -7.200  0.0000E+00  0.0000E+00  0.5000E-02  0.5000E-02
     -7.093  0.0000E+00  0.0000E+00  0.5000E-02  0.5000E-02
     -6.985  0.0000E+00  0.0000E+00  0.5000E-02  0.5000E-02
     -6.877  0.0000E+00  0.0000E+00  0.5000E-02  0.5000E-02
     -6.770  0.0000E+00  0.0000E+00  0.5000E-02  0.5000E-02
     -6.662  0.0000E+00  0.0000E+00  0.5000E-02  0.5000E-02
     -6.554  0.0000E+00  0.0000E+00  0.5000E-02  0.5000E-02
     -6.447  0.0000E+00  0.0000E+00  0.5000E-02  0.5000E-02
     -6.339  0.0000E+00  0.0000E+00  0.5000E-02  0.5000E-02
     -6.231  0.0000E+00  0.0000E+00  0.5000E-02  0.5000E-02
     -6.124  0.0000E+00  0.0000E+00  0.5000E-02  0.5000E-02
     -6.016  0.0000E+00  0.0000E+00  0.5000E-02  0.5000E-02
     -5.908  0.0000E+00  0.0000E+00  0.5000E-02  0.5000E-02
     -5.801  0.0000E+00  0.0000E+00  0.5000E-02  0.5000E-02
     -5.693  0.0000E+00  0.0000E+00  0.5000E-02  0.5000E-02
     -5.585  0.0000E+00  0.0000E+00  0.5000E-02  0.5000E-02
     -5.478  0.0000E+00  0.0000E+00  0.5000E-02  0.5000E-02
     -5.370  0.0000E+00  0.0000E+00  0.5000E-02  0.5000E-02
     -5.262  0.0000E+00  0.0000E+00  0.5000E-02  0.5000E-02
     -5.155  0.0000E+00  0.0000E+00  0.5000E-02  0.5000E-02
     -5.047  0.0000E+00  0.0000E+00  0.5000E-02  0.5000E-02
     -4.939  0.0000E+00  0.0000E+00  0.5000E-02  0.5000E-02
     -4.832  0.0000E+00  0.0000E+00  0.5000E-02  0.5000E-02
     -4.724  0.0000E+00  0.0000E+00  0.5000E-02  0.5000E-02
     -4.616  0.0000E+00  0.0000E+00  0.5000E-02  0.5000E-02
     -4.509  0.0000E+00  0.0000E+00  0.5000E-02  0.5000E-02
     -4.401  0.0000E+00  0.0000E+00  0.5000E-02  0.5000E-02
     -4.293  0.0000E+00  0.0000E+00  0.5000E-02  0.5000E-02
     -4.186  0.0000E+00  0.0000E+00  0.5000E-02  0.5000E-02
     -4.078  0.0000E+00  0.0000E+00  0.5000E-02  0.5000E-02
     -3.970  0.0000E+00  0.0000E+00  0.5000E-02  0.5000E-02
     -3.863  0.0000E+00  0.0000E+00  0.5000E-02  0.5000E-02
     -3.755  0.0000E+00  0.0000E+00  0.5000E-02  0.5000E-02
     -3.647  0.0000E+00  0.0000E+00  0.5000E-02  0.5000E-02
     -3.540  0.0000E+00  0.0000E+00  0.5000E-02  0.5000E-02
     -3.432  0.0000E+00  0.0000E+00  0.5000E-02  0.5000E-02
     -3.324  0.0000E+00  0.0000E+00  0.5000E-02  0.5000E-02
     -3.217  0.0000E+00  0.0000E+00  0.5000E-02  0.5000E-02
     -3.109  0.0000E+00  0.0000E+00  0.5000E-02  0.5000E-02
     -3.001  0.0000E+00  0.0000E+00  0.5000E-02  0.5000E-02
     -2.894  0.0000E+00  0.0000E+00  0.5000E-02  0.5000E-02
     -2.786  0.0000E+00  0.0000E+00  0.5000E-02  0.5000E-02
     -2.678  0.0000E+00  0.0000E+00  0.5000E-02  0.5000E-02
     -2.571  0.0000E+00  0.0000E+00  0.5000E-02  0.5000E-02
     -2.463  0.0000E+00  0.0000E+00  0.5000E-02  0.5000E-02
     -2.355  0.1314E-14  0.1314E-14  0.5000E-02  0.5000E-02
     -2.248  0.1267E-06  0.1267E-06  0.5000E-02  0.5000E-02
     -2.140  0.1784E-02  0.1784E-02  0.5192E-02  0.5192E-02
     -2.032  0.1603E-01  0.1603E-01  0.6918E-02  0.6918E-02
     -1.925  0.7586E-03  0.7586E-03  0.7000E-02  0.7000E-02
     -1.817  0.1577E-07  0.1577E-07  0.7000E-02  0.7000E-02
     -1.709  0.4537E-16  0.4537E-16  0.7000E-02  0.7000E-02
     -1.602  0.0000E+00  0.0000E+00  0.7000E-02  0.7000E-02
     -1.494  0.0000E+00  0.0000E+00  0.7000E-02  0.7000E-02
     -1.386  0.0000E+00  0.0000E+00  0.7000E-02  0.7000E-02
     -1.279  0.0000E+00  0.0000E+00  0.7000E-02  0.7000E-02
     -1.171  0.0000E+00  0.0000E+00  0.7000E-02  0.7000E-02
     -1.063  0.0000E+00  0.0000E+00  0.7000E-02  0.7000E-02
     -0.956  0.0000E+00  0.0000E+00  0.7000E-02  0.7000E-02
     -0.848  0.0000E+00  0.0000E+00  0.7000E-02  0.7000E-02
     -0.740  0.0000E+00  0.0000E+00  0.7000E-02  0.7000E-02
     -0.633  0.0000E+00  0.0000E+00  0.7000E-02  0.7000E-02
     -0.525  0.0000E+00  0.0000E+00  0.7000E-02  0.7000E-02
     -0.417  0.0000E+00  0.0000E+00  0.7000E-02  0.7000E-02
     -0.310  0.1063E-11  0.1064E-11  0.7000E-02  0.7000E-02
     -0.202  0.4567E-05  0.4569E-05  0.7000E-02  0.7000E-02
     -0.094  0.3724E-02  0.3724E-02  0.7401E-02  0.7401E-02
      0.013  0.7502E-02  0.7501E-02  0.8209E-02  0.8209E-02
      0.121  0.1109E-01  0.1109E-01  0.9403E-02  0.9403E-02
      0.229  0.2342E-01  0.2342E-01  0.1192E-01  0.1192E-01
      0.336  0.7020E-03  0.7018E-03  0.1200E-01  0.1200E-01
      0.444  0.7945E-08  0.7941E-08  0.1200E-01  0.1200E-01
      0.552  0.1134E-16  0.1134E-16  0.1200E-01  0.1200E-01
      0.659  0.0000E+00  0.0000E+00  0.1200E-01  0.1200E-01
      0.767  0.0000E+00  0.0000E+00  0.1200E-01  0.1200E-01
      0.875  0.0000E+00  0.0000E+00  0.1200E-01  0.1200E-01
      0.982  0.0000E+00  0.0000E+00  0.1200E-01  0.1200E-01
      1.090  0.0000E+00  0.0000E+00  0.1200E-01  0.1200E-01
      1.198  0.0000E+00  0.0000E+00  0.1200E-01  0.1200E-01
      1.305  0.0000E+00  0.0000E+00  0.1200E-01  0.1200E-01
      1.413  0.0000E+00  0.0000E+00  0.1200E-01  0.1200E-01
      1.521  0.0000E+00  0.0000E+00  0.1200E-01  0.1200E-01
      1.628  0.0000E+00  0.0000E+00  0.1200E-01  0.1200E-01
