   2   2   0   0
  0.1350000E+05  0.3000000E-08  0.3000000E-08  0.3000000E-08  0.5000000E-15
  1.000000000000000E-004
  CAR 
 Co–organic framework                  
      1.44243067    -26.09698396  301     -6.22694158      1.00000000
    -26.097  0.0000E+00  0.0000E+00  0.0000E+00  0.0000E+00
    -26.005  0.0000E+00  0.0000E+00  0.0000E+00  0.0000E+00
    -25.913  0.0000E+00  0.0000E+00  0.0000E+00  0.0000E+00
    -25.822  0.0000E+00  0.0000E+00  0.0000E+00  0.0000E+00
    -25.730  0.0000E+00  0.0000E+00  0.0000E+00  0.0000E+00
    -25.638  0.0000E+00  0.0000E+00  0.0000E+00  0.0000E+00
    -25.546  0.0000E+00  0.0000E+00  0.0000E+00  0.0000E+00
    -25.454  0.0000E+00  0.0000E+00  0.0000E+00  0.0000E+00
    -25.363  0.0000E+00  0.0000E+00  0.0000E+00  0.0000E+00
    -25.271  0.0000E+00  0.0000E+00  0.0000E+00  0.0000E+00
    -25.179  0.0000E+00  0.0000E+00  0.0000E+00  0.0000E+00
    -25.087  0.4161E-13  0.0000E+00  0.3819E-14  0.0000E+00
    -24.995  0.1171E-06  0.0000E+00  0.1075E-07  0.0000E+00
    -24.904  0.5363E-03  0.0000E+00  0.4924E-04  0.0000E+00
    -24.812  0.8477E-02  0.0000E+00  0.8275E-03  0.0000E+00
    -24.720  0.1877E-02  0.0000E+00  0.9998E-03  0.0000E+00
    -24.628  0.2174E-05  0.0000E+00  0.1000E-02  0.0000E+00
    -24.536  0.4579E-11  0.0000E+00  0.1000E-02  0.0000E+00
    -24.445  0.0000E+00  0.0000E+00  0.1000E-02  0.0000E+00
    -24.353  0.0000E+00  0.0000E+00  0.1000E-02  0.0000E+00
    -24.261  0.0000E+00  0.0000E+00  0.1000E-02  0.0000E+00
    -24.169  0.0000E+00  0.0000E+00  0.1000E-02  0.0000E+00
    -24.077  0.0000E+00  0.0000E+00  0.1000E-02  0.0000E+00
    -23.986  0.0000E+00  0.0000E+00  0.1000E-02  0.0000E+00
    -23.894  0.0000E+00  0.0000E+00  0.1000E-02  0.0000E+00
    -23.802  0.0000E+00  0.0000E+00  0.1000E-02  0.0000E+00
    -23.710  0.0000E+00  0.0000E+00  0.1000E-02  0.0000E+00
    -23.618  0.0000E+00  0.0000E+00  0.1000E-02  0.0000E+00
    -23.527  0.0000E+00  0.0000E+00  0.1000E-02  0.0000E+00
    -23.435  0.0000E+00  0.0000E+00  0.1000E-02  0.0000E+00
    -23.343  0.0000E+00  0.0000E+00  0.1000E-02  0.0000E+00
    -23.251  0.0000E+00  0.0000E+00  0.1000E-02  0.0000E+00
    -23.159  0.0000E+00  0.0000E+00  0.1000E-02  0.0000E+00
    -23.068  0.0000E+00  0.0000E+00  0.1000E-02  0.0000E+00
    -22.976  0.0000E+00  0.0000E+00  0.1000E-02  0.0000E+00
    -22.884  0.0000E+00  0.0000E+00  0.1000E-02  0.0000E+00
    -22.792  0.0000E+00  0.0000E+00  0.1000E-02  0.0000E+00
    -22.700  0.0000E+00  0.0000E+00  0.1000E-02  0.0000E+00
    -22.609  0.0000E+00  0.0000E+00  0.1000E-02  0.0000E+00
    -22.517  0.0000E+00  0.0000E+00  0.1000E-02  0.0000E+00
    -22.425  0.0000E+00  0.0000E+00  0.1000E-02  0.0000E+00
    -22.333  0.0000E+00  0.0000E+00  0.1000E-02  0.0000E+00
    -22.241  0.0000E+00  0.0000E+00  0.1000E-02  0.0000E+00
    -22.150  0.0000E+00  0.0000E+00  0.1000E-02  0.0000E+00
    -22.058  0.0000E+00  0.0000E+00  0.1000E-02  0.0000E+00
    -21.966  0.0000E+00  0.0000E+00  0.1000E-02  0.0000E+00
    -21.874  0.0000E+00  0.0000E+00  0.1000E-02  0.0000E+00
    -21.782  0.0000E+00  0.0000E+00  0.1000E-02  0.0000E+00
    -21.691  0.0000E+00  0.0000E+00  0.1000E-02  0.0000E+00
    -21.599  0.0000E+00  0.0000E+00  0.1000E-02  0.0000E+00
    -21.507  0.0000E+00  0.7575E-14  0.1000E-02  0.6954E-15
    -21.415  0.0000E+00  0.3906E-07  0.1000E-02  0.3586E-08
    -21.323  0.0000E+00  0.3185E-03  0.1000E-02  0.2924E-04
    -21.232  0.0000E+00  0.7954E-02  0.1000E-02  0.7594E-03
    -21.140  0.0000E+00  0.2616E-02  0.1000E-02  0.9995E-03
    -21.048  0.0000E+00  0.5251E-05  0.1000E-02  0.1000E-02
    -20.956  0.0000E+00  0.2013E-10  0.1000E-02  0.1000E-02
    -20.864  0.0000E+00  0.0000E+00  0.1000E-02  0.1000E-02
    -20.773  0.0000E+00  0.0000E+00  0.1000E-02  0.1000E-02
    -20.681  0.0000E+00  0.0000E+00  0.1000E-02  0.1000E-02
    -20.589  0.0000E+00  0.0000E+00  0.1000E-02  0.1000E-02
    -20.497  0.0000E+00  0.0000E+00  0.1000E-02  0.1000E-02
    -20.406  0.0000E+00  0.0000E+00  0.1000E-02  0.1000E-02
    -20.314  0.0000E+00  0.0000E+00  0.1000E-02  0.1000E-02
    -20.222  0.0000E+00  0.0000E+00  0.1000E-02  0.1000E-02
    -20.130  0.0000E+00  0.0000E+00  0.1000E-02  0.1000E-02
    -20.038  0.0000E+00  0.0000E+00  0.1000E-02  0.1000E-02
    -19.947  0.0000E+00  0.0000E+00  0.1000E-02  0.1000E-02
    -19.855  0.0000E+00  0.0000E+00  0.1000E-02  0.1000E-02
    -19.763  0.0000E+00  0.0000E+00  0.1000E-02  0.1000E-02
    -19.671  0.0000E+00  0.0000E+00  0.1000E-02  0.1000E-02
    -19.579  0.0000E+00  0.0000E+00  0.1000E-02  0.1000E-02
    -19.488  0.0000E+00  0.0000E+00  0.1000E-02  0.1000E-02
    -19.396  0.0000E+00  0.0000E+00  0.1000E-02  0.1000E-02
    -19.304  0.0000E+00  0.0000E+00  0.1000E-02  0.1000E-02
    -19.212  0.0000E+00  0.0000E+00  0.1000E-02  0.1000E-02
    -19.120  0.0000E+00  0.0000E+00  0.1000E-02  0.1000E-02
    -19.029  0.0000E+00  0.0000E+00  0.1000E-02  0.1000E-02
    -18.937  0.0000E+00  0.0000E+00  0.1000E-02  0.1000E-02
    -18.845  0.0000E+00  0.0000E+00  0.1000E-02  0.1000E-02
    -18.753  0.0000E+00  0.0000E+00  0.1000E-02  0.1000E-02
    -18.661  0.0000E+00  0.0000E+00  0.1000E-02  0.1000E-02
    -18.570  0.0000E+00  0.0000E+00  0.1000E-02  0.1000E-02
    -18.478  0.0000E+00  0.0000E+00  0.1000E-02  0.1000E-02
    -18.386  0.0000E+00  0.0000E+00  0.1000E-02  0.1000E-02
    -18.294  0.0000E+00  0.0000E+00  0.1000E-02  0.1000E-02
    -18.202  0.0000E+00  0.0000E+00  0.1000E-02  0.1000E-02
    -18.111  0.0000E+00  0.0000E+00  0.1000E-02  0.1000E-02
    -18.019  0.0000E+00  0.0000E+00  0.1000E-02  0.1000E-02
    -17.927  0.0000E+00  0.0000E+00  0.1000E-02  0.1000E-02
    -17.835  0.0000E+00  0.0000E+00  0.1000E-02  0.1000E-02
    -17.743  0.0000E+00  0.0000E+00  0.1000E-02  0.1000E-02
    -17.652  0.0000E+00  0.0000E+00  0.1000E-02  0.1000E-02
    -17.560  0.0000E+00  0.0000E+00  0.1000E-02  0.1000E-02
    -17.468  0.0000E+00  0.0000E+00  0.1000E-02  0.1000E-02
    -17.376  0.0000E+00  0.0000E+00  0.1000E-02  0.1000E-02
    -17.284  0.0000E+00  0.0000E+00  0.1000E-02  0.1000E-02
    -17.193  0.0000E+00  0.0000E+00  0.1000E-02  0.1000E-02
    -17.101  0.0000E+00  0.0000E+00  0.1000E-02  0.1000E-02
    -17.009  0.0000E+00  0.0000E+00  0.1000E-02  0.1000E-02
    -16.917  0.0000E+00  0.0000E+00  0.1000E-02  0.1000E-02
    -16.825  0.0000E+00  0.0000E+00  0.1000E-02  0.1000E-02
    -16.734  0.0000E+00  0.0000E+00  0.1000E-02  0.1000E-02
    -16.642  0.0000E+00  0.0000E+00  0.1000E-02  0.1000E-02
    -16.550  0.0000E+00  0.0000E+00  0.1000E-02  0.1000E-02
    -16.458  0.0000E+00  0.0000E+00  0.1000E-02  0.1000E-02
    -16.366  0.0000E+00  0.0000E+00  0.1000E-02  0.1000E-02
    -16.275  0.0000E+00  0.0000E+00  0.1000E-02  0.1000E-02
    -16.183  0.0000E+00  0.0000E+00  0.1000E-02  0.1000E-02
    -16.091  0.0000E+00  0.0000E+00  0.1000E-02  0.1000E-02
    -15.999  0.0000E+00  0.0000E+00  0.1000E-02  0.1000E-02
    -15.907  0.0000E+00  0.0000E+00  0.1000E-02  0.1000E-02
    -15.816  0.0000E+00  0.0000E+00  0.1000E-02  0.1000E-02
    -15.724  0.0000E+00  0.0000E+00  0.1000E-02  0.1000E-02
    -15.632  0.0000E+00  0.0000E+00  0.1000E-02  0.1000E-02
    -15.540  0.0000E+00  0.0000E+00  0.1000E-02  0.1000E-02
    -15.448  0.0000E+00  0.0000E+00  0.1000E-02  0.1000E-02
    -15.357  0.0000E+00  0.0000E+00  0.1000E-02  0.1000E-02
    -15.265  0.0000E+00  0.0000E+00  0.1000E-02  0.1000E-02
    -15.173  0.0000E+00  0.0000E+00  0.1000E-02  0.1000E-02
    -15.081  0.0000E+00  0.0000E+00  0.1000E-02  0.1000E-02
    -14.989  0.0000E+00  0.0000E+00  0.1000E-02  0.1000E-02
    -14.898  0.1179E-13  0.0000E+00  0.1000E-02  0.1000E-02
    -14.806  0.5204E-07  0.0000E+00  0.1000E-02  0.1000E-02
    -14.714  0.3658E-03  0.0000E+00  0.1034E-02  0.1000E-02
    -14.622  0.8111E-02  0.0000E+00  0.1778E-02  0.1000E-02
    -14.530  0.2413E-02  0.0000E+00  0.2000E-02  0.1000E-02
    -14.439  0.4210E-05  0.0000E+00  0.2000E-02  0.1000E-02
    -14.347  0.1384E-10  0.0000E+00  0.2000E-02  0.1000E-02
    -14.255  0.0000E+00  0.0000E+00  0.2000E-02  0.1000E-02
    -14.163  0.0000E+00  0.0000E+00  0.2000E-02  0.1000E-02
    -14.071  0.0000E+00  0.0000E+00  0.2000E-02  0.1000E-02
    -13.980  0.0000E+00  0.0000E+00  0.2000E-02  0.1000E-02
    -13.888  0.0000E+00  0.0000E+00  0.2000E-02  0.1000E-02
    -13.796  0.0000E+00  0.0000E+00  0.2000E-02  0.1000E-02
    -13.704  0.0000E+00  0.0000E+00  0.2000E-02  0.1000E-02
    -13.612  0.0000E+00  0.0000E+00  0.2000E-02  0.1000E-02
    -13.521  0.0000E+00  0.0000E+00  0.2000E-02  0.1000E-02
    -13.429  0.0000E+00  0.0000E+00  0.2000E-02  0.1000E-02
    -13.337  0.0000E+00  0.0000E+00  0.2000E-02  0.1000E-02
    -13.245  0.0000E+00  0.0000E+00  0.2000E-02  0.1000E-02
    -13.153  0.0000E+00  0.0000E+00  0.2000E-02  0.1000E-02
    -13.062  0.0000E+00  0.0000E+00  0.2000E-02  0.1000E-02
    -12.970  0.0000E+00  0.0000E+00  0.2000E-02  0.1000E-02
    -12.878  0.0000E+00  0.0000E+00  0.2000E-02  0.1000E-02
    -12.786  0.0000E+00  0.0000E+00  0.2000E-02  0.1000E-02
    -12.694  0.0000E+00  0.0000E+00  0.2000E-02  0.1000E-02
    -12.603  0.0000E+00  0.0000E+00  0.2000E-02  0.1000E-02
    -12.511  0.0000E+00  0.0000E+00  0.2000E-02  0.1000E-02
    -12.419  0.0000E+00  0.5080E-16  0.2000E-02  0.1000E-02
    -12.327  0.0000E+00  0.1404E-08  0.2000E-02  0.1000E-02
    -12.235  0.0000E+00  0.5775E-04  0.2000E-02  0.1005E-02
    -12.144  0.0000E+00  0.5567E-02  0.2000E-02  0.1516E-02
    -12.052  0.0000E+00  0.5223E-02  0.2000E-02  0.1996E-02
    -11.960  0.0000E+00  0.4551E-04  0.2000E-02  0.2000E-02
    -11.868  0.0000E+00  0.9045E-09  0.2000E-02  0.2000E-02
    -11.776  0.0000E+00  0.2661E-16  0.2000E-02  0.2000E-02
    -11.685  0.0000E+00  0.0000E+00  0.2000E-02  0.2000E-02
    -11.593  0.0000E+00  0.0000E+00  0.2000E-02  0.2000E-02
    -11.501  0.0000E+00  0.0000E+00  0.2000E-02  0.2000E-02
    -11.409  0.0000E+00  0.0000E+00  0.2000E-02  0.2000E-02
    -11.317  0.0000E+00  0.0000E+00  0.2000E-02  0.2000E-02
    -11.226  0.0000E+00  0.0000E+00  0.2000E-02  0.2000E-02
    -11.134  0.0000E+00  0.0000E+00  0.2000E-02  0.2000E-02
    -11.042  0.0000E+00  0.0000E+00  0.2000E-02  0.2000E-02
    -10.950  0.0000E+00  0.0000E+00  0.2000E-02  0.2000E-02
    -10.859  0.0000E+00  0.0000E+00  0.2000E-02  0.2000E-02
    -10.767  0.1721E-12  0.0000E+00  0.2000E-02  0.2000E-02
    -10.675  0.3719E-06  0.0000E+00  0.2000E-02  0.2000E-02
    -10.583  0.1326E-02  0.0000E+00  0.2122E-02  0.2000E-02
    -10.491  0.1726E-01  0.0000E+00  0.3706E-02  0.2000E-02
    -10.400  0.3202E-02  0.0000E+00  0.4000E-02  0.2000E-02
    -10.308  0.2909E-05  0.0000E+00  0.4000E-02  0.2000E-02
    -10.216  0.4714E-11  0.0000E+00  0.4000E-02  0.2000E-02
    -10.124  0.0000E+00  0.0000E+00  0.4000E-02  0.2000E-02
    -10.032  0.0000E+00  0.0000E+00  0.4000E-02  0.2000E-02
     -9.941  0.0000E+00  0.0000E+00  0.4000E-02  0.2000E-02
     -9.849  0.0000E+00  0.0000E+00  0.4000E-02  0.2000E-02
     -9.757  0.0000E+00  0.0000E+00  0.4000E-02  0.2000E-02
     -9.665  0.0000E+00  0.0000E+00  0.4000E-02  0.2000E-02
     -9.573  0.0000E+00  0.0000E+00  0.4000E-02  0.2000E-02
     -9.482  0.0000E+00  0.0000E+00  0.4000E-02  0.2000E-02
     -9.390  0.0000E+00  0.0000E+00  0.4000E-02  0.2000E-02
     -9.298  0.0000E+00  0.0000E+00  0.4000E-02  0.2000E-02
     -9.206  0.0000E+00  0.0000E+00  0.4000E-02  0.2000E-02
     -9.114  0.0000E+00  0.0000E+00  0.4000E-02  0.2000E-02
     -9.023  0.0000E+00  0.0000E+00  0.4000E-02  0.2000E-02
     -8.931  0.0000E+00  0.0000E+00  0.4000E-02  0.2000E-02
     -8.839  0.0000E+00  0.0000E+00  0.4000E-02  0.2000E-02
     -8.747  0.4838E-17  0.0000E+00  0.4000E-02  0.2000E-02
     -8.655  0.2767E-09  0.0000E+00  0.4000E-02  0.2000E-02
     -8.564  0.2366E-04  0.0000E+00  0.4002E-02  0.2000E-02
     -8.472  0.4324E-02  0.0000E+00  0.4399E-02  0.2000E-02
     -8.380  0.6441E-02  0.0000E+00  0.4990E-02  0.2000E-02
     -8.288  0.1048E-03  0.0000E+00  0.5000E-02  0.2000E-02
     -8.196  0.4315E-08  0.0000E+00  0.5000E-02  0.2000E-02
     -8.105  0.2685E-15  0.0000E+00  0.5000E-02  0.2000E-02
     -8.013  0.0000E+00  0.0000E+00  0.5000E-02  0.2000E-02
     -7.921  0.0000E+00  0.0000E+00  0.5000E-02  0.2000E-02
     -7.829  0.0000E+00  0.0000E+00  0.5000E-02  0.2000E-02
     -7.737  0.0000E+00  0.0000E+00  0.5000E-02  0.2000E-02
     -7.646  0.0000E+00  0.0000E+00  0.5000E-02  0.2000E-02
     -7.554  0.0000E+00  0.2419E-17  0.5000E-02  0.2000E-02
     -7.462  0.0000E+00  0.1746E-09  0.5000E-02  0.2000E-02
     -7.370  0.0000E+00  0.1827E-04  0.5000E-02  0.2002E-02
     -7.278  0.0000E+00  0.3992E-02  0.5000E-02  0.2368E-02
     -7.187  0.0000E+00  0.6754E-02  0.5000E-02  0.2988E-02
     -7.095  0.0000E+00  0.1299E-03  0.5000E-02  0.3000E-02
     -7.003  0.0000E+00  0.6524E-08  0.5000E-02  0.3000E-02
     -6.911  0.0000E+00  0.4983E-15  0.5000E-02  0.3000E-02
     -6.819  0.0000E+00  0.0000E+00  0.5000E-02  0.3000E-02
     -6.728  0.0000E+00  0.0000E+00  0.5000E-02  0.3000E-02
     -6.636  0.0000E+00  0.0000E+00  0.5000E-02  0.3000E-02
     -6.544  0.1049E-12  0.0000E+00  0.5000E-02  0.3000E-02
     -6.452  0.2693E-06  0.0000E+00  0.5000E-02  0.3000E-02
     -6.360  0.1140E-02  0.3420E-10  0.5105E-02  0.3000E-02
     -6.269  0.1704E-01  0.9535E-05  0.6669E-02  0.3001E-02
     -6.177  0.3603E-02  0.5050E-02  0.7000E-02  0.3464E-02
     -6.085  0.3942E-05  0.1605E-01  0.7000E-02  0.4938E-02
     -5.993  0.7873E-11  0.6775E-03  0.7000E-02  0.5000E-02
     -5.901  0.3087E-08  0.8878E-07  0.7000E-02  0.5000E-02
     -5.810  0.8790E-04  0.1846E-13  0.7008E-02  0.5000E-02
     -5.718  0.6182E-02  0.0000E+00  0.7576E-02  0.5000E-02
     -5.626  0.4594E-02  0.0000E+00  0.7997E-02  0.5000E-02
     -5.534  0.2897E-04  0.0000E+00  0.8000E-02  0.5000E-02
     -5.442  0.3978E-09  0.0000E+00  0.8000E-02  0.5000E-02
     -5.351  0.7257E-17  0.0000E+00  0.8000E-02  0.5000E-02
     -5.259  0.0000E+00  0.0000E+00  0.8000E-02  0.5000E-02
     -5.167  0.0000E+00  0.3568E-16  0.8000E-02  0.5000E-02
     -5.075  0.0000E+00  0.1112E-08  0.8000E-02  0.5000E-02
     -4.983  0.0000E+00  0.5090E-04  0.8000E-02  0.5005E-02
     -4.892  0.0000E+00  0.5384E-02  0.8000E-02  0.5499E-02
     -4.800  0.0000E+00  0.5407E-02  0.8000E-02  0.5995E-02
     -4.708  0.0000E+00  0.5171E-04  0.8000E-02  0.6000E-02
     -4.616  0.0000E+00  0.1144E-08  0.8000E-02  0.6000E-02
     -4.524  0.0000E+00  0.3749E-16  0.8000E-02  0.6000E-02
     -4.433  0.0000E+00  0.0000E+00  0.8000E-02  0.6000E-02
     -4.341  0.0000E+00  0.0000E+00  0.8000E-02  0.6000E-02
     -4.249  0.0000E+00  0.0000E+00  0.8000E-02  0.6000E-02
     -4.157  0.0000E+00  0.0000E+00  0.8000E-02  0.6000E-02
     -4.065  0.0000E+00  0.0000E+00  0.8000E-02  0.6000E-02
     -3.974  0.0000E+00  0.0000E+00  0.8000E-02  0.6000E-02
     -3.882  0.0000E+00  0.0000E+00  0.8000E-02  0.6000E-02
     -3.790  0.0000E+00  0.0000E+00  0.8000E-02  0.6000E-02
     -3.698  0.0000E+00  0.0000E+00  0.8000E-02  0.6000E-02
     -3.606  0.0000E+00  0.1209E-17  0.8000E-02  0.6000E-02
     -3.515  0.0000E+00  0.1057E-09  0.8000E-02  0.6000E-02
     -3.423  0.0000E+00  0.1837E-04  0.8000E-02  0.6002E-02
     -3.331  0.0000E+00  0.6361E-02  0.8000E-02  0.6586E-02
     -3.239  0.0000E+00  0.1497E-01  0.8000E-02  0.7960E-02
     -3.147  0.0000E+00  0.4396E-03  0.8000E-02  0.8000E-02
     -3.056  0.0000E+00  0.3698E-07  0.8000E-02  0.8000E-02
     -2.964  0.0000E+00  0.4864E-14  0.8000E-02  0.8000E-02
     -2.872  0.0000E+00  0.0000E+00  0.8000E-02  0.8000E-02
     -2.780  0.0000E+00  0.0000E+00  0.8000E-02  0.8000E-02
     -2.688  0.0000E+00  0.0000E+00  0.8000E-02  0.8000E-02
     -2.597  0.0000E+00  0.0000E+00  0.8000E-02  0.8000E-02
     -2.505  0.0000E+00  0.0000E+00  0.8000E-02  0.8000E-02
     -2.413  0.0000E+00  0.0000E+00  0.8000E-02  0.8000E-02
     -2.321  0.0000E+00  0.0000E+00  0.8000E-02  0.8000E-02
     -2.229  0.0000E+00  0.0000E+00  0.8000E-02  0.8000E-02
     -2.138  0.0000E+00  0.0000E+00  0.8000E-02  0.8000E-02
     -2.046  0.0000E+00  0.0000E+00  0.8000E-02  0.8000E-02
     -1.954  0.0000E+00  0.0000E+00  0.8000E-02  0.8000E-02
     -1.862  0.0000E+00  0.0000E+00  0.8000E-02  0.8000E-02
     -1.771  0.0000E+00  0.0000E+00  0.8000E-02  0.8000E-02
     -1.679  0.0000E+00  0.0000E+00  0.8000E-02  0.8000E-02
     -1.587  0.0000E+00  0.0000E+00  0.8000E-02  0.8000E-02
     -1.495  0.0000E+00  0.0000E+00  0.8000E-02  0.8000E-02
     -1.403  0.0000E+00  0.0000E+00  0.8000E-02  0.8000E-02
     -1.312  0.0000E+00  0.0000E+00  0.8000E-02  0.8000E-02
     -1.220  0.0000E+00  0.0000E+00  0.8000E-02  0.8000E-02
     -1.128  0.0000E+00  0.0000E+00  0.8000E-02  0.8000E-02
     -1.036  0.0000E+00  0.0000E+00  0.8000E-02  0.8000E-02
     -0.944  0.0000E+00  0.0000E+00  0.8000E-02  0.8000E-02
     -0.853  0.0000E+00  0.0000E+00  0.8000E-02  0.8000E-02
     -0.761  0.0000E+00  0.0000E+00  0.8000E-02  0.8000E-02
     -0.669  0.7982E-16  0.0000E+00  0.8000E-02  0.8000E-02
     -0.577  0.1905E-08  0.0000E+00  0.8000E-02  0.8000E-02
     -0.485  0.6802E-04  0.0000E+00  0.8006E-02  0.8000E-02
     -0.394  0.5806E-02  0.0000E+00  0.8539E-02  0.8000E-02
     -0.302  0.4981E-02  0.6925E-12  0.8996E-02  0.8000E-02
     -0.210  0.3841E-04  0.6864E-06  0.9000E-02  0.8000E-02
     -0.118  0.3614E-03  0.1175E-02  0.9033E-02  0.8108E-02
     -0.026  0.1017E-01  0.8815E-02  0.9966E-02  0.8917E-02
      0.065  0.1116E-01  0.6252E-02  0.1099E-01  0.9491E-02
      0.157  0.8599E-02  0.1322E-01  0.1178E-01  0.1070E-01
      0.249  0.2386E-02  0.1354E-01  0.1200E-01  0.1195E-01
      0.341  0.4084E-05  0.5752E-03  0.1200E-01  0.1200E-01
      0.433  0.1315E-10  0.1178E-06  0.1200E-01  0.1200E-01
      0.524  0.0000E+00  0.4162E-13  0.1200E-01  0.1200E-01
      0.616  0.0000E+00  0.0000E+00  0.1200E-01  0.1200E-01
      0.708  0.0000E+00  0.0000E+00  0.1200E-01  0.1200E-01
      0.800  0.0000E+00  0.0000E+00  0.1200E-01  0.1200E-01
      0.892  0.0000E+00  0.0000E+00  0.1200E-01  0.1200E-01
      0.983  0.0000E+00  0.0000E+00  0.1200E-01  0.1200E-01
      1.075  0.0000E+00  0.0000E+00  0.1200E-01  0.1200E-01
      1.167  0.0000E+00  0.0000E+00  0.1200E-01  0.1200E-01
      1.259  0.0000E+00  0.0000E+00  0.1200E-01  0.1200E-01
      1.351  0.0000E+00  0.0000E+00  0.1200E-01  0.1200E-01
      1.442  0.0000E+00  0.0000E+00  0.1200E-01  0.1200E-01
