    2    2 1000    2
  0.1350000E+05  0.3000000E-08  0.3000000E-08  0.3000000E-08  0.5000000E-15
  1.000000000000000E-004
  CAR 
 Co–organic framework                  
     10      1     12
 
  0.0000000E+00  0.0000000E+00  0.0000000E+00  0.1000000E+01
    1      -24.845192    -21.256590   1.000000   1.000000
    2      -14.649306    -12.145127   1.000000   1.000000
    3      -10.528537     -7.266473   1.000000   1.000000
    4      -10.528264     -6.151256   1.000000   0.016149
    5       -8.462721     -6.150633   1.000000   0.015451
    6       -6.304333     -4.891540   0.985700   0.000000
    7       -6.301648     -3.312842   0.982700   0.000000
    8       -5.724558     -3.310724   0.000000   0.000000
    9       -0.397010     -0.074378   0.000000   0.000000
   10       -0.053100      0.066816   0.000000   0.000000
   11        0.004581      0.153944   0.000000   0.000000
   12        0.129884      0.190639   0.000000   0.000000
