    2    2 1000    2
  0.1350000E+05  0.3000000E-08  0.3000000E-08  0.3000000E-08  0.5000000E-15
  1.000000000000000E-004
  CAR 
 Co–organic framework                  
     10      1     12
 
  0.0000000E+00  0.0000000E+00  0.0000000E+00  0.1000000E+01
    1      -29.204028    -29.204028   1.000000   1.000000
    2      -14.130918    -14.130918   1.000000   1.000000
    3      -11.759728    -11.759728   1.000000   1.000000
    4      -11.759725    -11.759725   1.000000   1.000000
    5       -9.055636     -9.055636   1.000000   1.000000
    6       -2.093881     -2.093881   0.000000   0.000000
    7       -2.093876     -2.093876   0.000000   0.000000
    8       -0.085450     -0.085453   0.000000   0.000000
    9        0.041689      0.041694   0.000000   0.000000
   10        0.158223      0.158221   0.000000   0.000000
   11        0.160134      0.160128   0.000000   0.000000
   12        0.160206      0.160203   0.000000   0.000000
