 running on   24 total cores
 distrk:  each k-point on   24 cores,    1 groups
 distr:  one band on    4 cores,    6 groups
 using from now: INCAR     
 vasp.5.4.4.18Apr17-6-g9f103f2a35 (build May 21 2019 18:55:53) complex          
  
 POSCAR found type information on POSCAR  C  O 
 POSCAR found :  2 types and       2 ions
 WARNING: type information on POSCAR and POTCAR are incompatible
 POTCAR overwrites the type information in POSCAR
 typ   1 type information:  C  O 
 WARNING: type information on POSCAR and POTCAR are incompatible
 POTCAR overwrites the type information in POSCAR
 typ   2 type information:  O  C 

 ----------------------------------------------------------------------------- 
|                                                                             |
|  ADVICE TO THIS USER RUNNING 'VASP/VAMP'   (HEAR YOUR MASTER'S VOICE ...):  |
|                                                                             |
|      You have a (more or less) 'small supercell' and for smaller cells      |
|      it is recommended  to use the reciprocal-space projection scheme!      |
|      The real space optimization is not  efficient for small cells and it   |
|      is also less accurate ...                                              |
|      Therefore set LREAL=.FALSE. in the  INCAR file                         |
|                                                                             |
 ----------------------------------------------------------------------------- 

 LDA part: xc-table for Pade appr. of Perdew
 POSCAR found type information on POSCAR  C  O 
 POSCAR found :  2 types and       2 ions
 POSCAR, INCAR and KPOINTS ok, starting setup
 FFT: planning ...
 WAVECAR not read
 WARNING: random wavefunctions but no delay for mixing, default for NELMDL
 entering main loop
       N       E                     dE             d eps       ncg     rms          rms(c)
DAV:   1     0.628317180860E+02    0.62832E+02   -0.12863E+03    96   0.283E+02
DAV:   2     0.368048978662E+02   -0.26027E+02   -0.25785E+02    72   0.474E+01
DAV:   3     0.466590472008E+01   -0.32139E+02   -0.30694E+02    96   0.542E+01
DAV:   4    -0.717624116483E+01   -0.11842E+02   -0.11842E+02    48   0.343E+01
DAV:   5    -0.748580262142E+01   -0.30956E+00   -0.30956E+00    48   0.142E+01    0.148E+01
RMM:   6    -0.412288439845E+02   -0.33743E+02   -0.19441E+01    48   0.226E+01    0.376E+01
RMM:   7    -0.138394121865E+01    0.39845E+02   -0.54753E+00    49   0.110E+01    0.322E+01
RMM:   8    -0.678970154766E+01   -0.54058E+01   -0.49548E+00    52   0.172E+01    0.141E+01
RMM:   9    -0.515502258524E+01    0.16347E+01   -0.31185E-01    54   0.251E+00    0.141E+01
RMM:  10    -0.301164631811E+01    0.21434E+01   -0.14700E-01    54   0.246E+00    0.133E+01
RMM:  11    -0.351187778458E+01   -0.50023E+00   -0.35164E-03    48   0.539E-01    0.134E+01
RMM:  12    -0.134526081798E+01    0.21666E+01   -0.36261E-01    54   0.271E+00    0.312E+01
RMM:  13    -0.971514362777E+00    0.37375E+00   -0.42036E-02    48   0.120E+00    0.130E+01
RMM:  14    -0.744511130012E+00    0.22700E+00   -0.35397E-03    48   0.611E-01    0.129E+01
RMM:  15    -0.133826112598E+01   -0.59375E+00   -0.25999E-02    58   0.574E-01    0.310E+01
RMM:  16    -0.298351390898E+01   -0.16453E+01   -0.33058E-01    54   0.367E+00    0.141E+01
RMM:  17    -0.350945978017E+01   -0.52595E+00   -0.10067E-02    48   0.106E+00    0.140E+01
RMM:  18    -0.315859486202E+01    0.35086E+00   -0.10617E-02    48   0.880E-01    0.138E+01
RMM:  19    -0.312116284478E+01    0.37432E-01   -0.15693E-03    54   0.240E-01    0.137E+01
RMM:  20    -0.345149096473E+01   -0.33033E+00   -0.74606E-04    50   0.134E-01    0.138E+01
RMM:  21    -0.409076208281E+01   -0.63927E+00   -0.56311E-03    50   0.320E-01    0.139E+01
RMM:  22    -0.386960135292E+01    0.22116E+00   -0.32453E-04    50   0.191E-01    0.139E+01
RMM:  23    -0.431049486521E+01   -0.44089E+00   -0.21805E-03    54   0.196E-01    0.139E+01
RMM:  24    -0.412381193384E+01    0.18668E+00   -0.21176E-04    54   0.667E-02    0.139E+01
RMM:  25    -0.456901324876E+01   -0.44520E+00   -0.17481E-03    48   0.154E-01    0.140E+01
RMM:  26    -0.265024590057E+01    0.19188E+01   -0.29777E-02    52   0.612E-01    0.137E+01
RMM:  27    -0.597315263506E+00    0.20529E+01   -0.30114E-01    54   0.251E+00    0.162E+01
RMM:  28    -0.144572554507E+01   -0.84841E+00   -0.18379E-02    52   0.922E-01    0.135E+01
RMM:  29    -0.148342379011E+02   -0.13389E+02   -0.17383E+00    48   0.550E+00    0.317E+01
RMM:  30    -0.941444861781E+01    0.54198E+01   -0.40082E+00    54   0.105E+01    0.163E+01
RMM:  31    -0.250847009541E+02   -0.15670E+02   -0.89555E+00    48   0.121E+01    0.322E+01
RMM:  32    -0.788109009040E+01    0.17204E+02   -0.24446E+00    48   0.712E+00    0.158E+01
RMM:  33    -0.207770275650E+01    0.58034E+01   -0.83725E-01    48   0.764E+00    0.307E+01
RMM:  34    -0.155683436727E+02   -0.13491E+02   -0.12006E+00    48   0.560E+00    0.142E+01
RMM:  35    -0.148350667047E+02    0.73328E+00   -0.24145E-01    52   0.297E+00    0.149E+01
RMM:  36    -0.106719606809E+02    0.41631E+01   -0.12654E-01    48   0.232E+00    0.148E+01
RMM:  37    -0.459370460255E+01    0.60783E+01   -0.37383E-01    52   0.214E+00    0.141E+01
RMM:  38    -0.572784594855E+01   -0.11341E+01   -0.33888E+00    54   0.883E+00    0.310E+01
RMM:  39    -0.122843444600E+02   -0.65565E+01   -0.14804E+00    53   0.495E+00    0.148E+01
RMM:  40    -0.287978315052E+01    0.94046E+01   -0.66904E-01    53   0.322E+00    0.137E+01
