 running on   24 total cores
 distrk:  each k-point on   24 cores,    1 groups
 distr:  one band on    4 cores,    6 groups
 using from now: INCAR     
 vasp.5.4.4.18Apr17-6-g9f103f2a35 (build May 21 2019 18:55:53) complex          
  
 POSCAR found type information on POSCAR  C  O 
 POSCAR found :  2 types and       2 ions
 WARNING: type information on POSCAR and POTCAR are incompatible
 POTCAR overwrites the type information in POSCAR
 typ   1 type information:  C  O 
 WARNING: type information on POSCAR and POTCAR are incompatible
 POTCAR overwrites the type information in POSCAR
 typ   2 type information:  O  C 

 ----------------------------------------------------------------------------- 
|                                                                             |
|  ADVICE TO THIS USER RUNNING 'VASP/VAMP'   (HEAR YOUR MASTER'S VOICE ...):  |
|                                                                             |
|      You have a (more or less) 'small supercell' and for smaller cells      |
|      it is recommended  to use the reciprocal-space projection scheme!      |
|      The real space optimization is not  efficient for small cells and it   |
|      is also less accurate ...                                              |
|      Therefore set LREAL=.FALSE. in the  INCAR file                         |
|                                                                             |
 ----------------------------------------------------------------------------- 

 LDA part: xc-table for Pade appr. of Perdew
 POSCAR found type information on POSCAR  C  O 
 POSCAR found :  2 types and       2 ions
 POSCAR, INCAR and KPOINTS ok, starting setup
 FFT: planning ...
 WAVECAR not read
 WARNING: random wavefunctions but no delay for mixing, default for NELMDL
 entering main loop
       N       E                     dE             d eps       ncg     rms          rms(c)
DAV:   1     0.911597274973E+02    0.91160E+02   -0.24493E+03    60   0.436E+02
DAV:   2     0.487082003207E+00   -0.90673E+02   -0.82578E+02    84   0.115E+02
DAV:   3    -0.156296188770E+02   -0.16117E+02   -0.16117E+02    84   0.737E+01
DAV:   4    -0.157753996417E+02   -0.14578E+00   -0.14578E+00    48   0.803E+00
DAV:   5    -0.157772628067E+02   -0.18632E-02   -0.18632E-02    84   0.115E+00    0.179E+01
RMM:   6    -0.150917389878E+02    0.68552E+00   -0.15327E+00    48   0.120E+01    0.109E+01
RMM:   7    -0.149569363099E+02    0.13480E+00   -0.68448E-01    48   0.553E+00    0.316E+00
RMM:   8    -0.149200835912E+02    0.36853E-01   -0.13921E-01    48   0.455E+00    0.653E-01
RMM:   9    -0.149142253498E+02    0.58582E-02   -0.38270E-02    48   0.162E+00    0.194E-01
RMM:  10    -0.149143314588E+02   -0.10611E-03   -0.21854E-03    48   0.720E-01    0.673E-02
RMM:  11    -0.149158608281E+02   -0.15294E-02   -0.10184E-03    48   0.255E-01    0.516E-02
RMM:  12    -0.149165014564E+02   -0.64063E-03   -0.22858E-04    48   0.117E-01    0.200E-02
RMM:  13    -0.149171148663E+02   -0.61341E-03   -0.81181E-05    48   0.688E-02    0.218E-02
RMM:  14    -0.149176814528E+02   -0.56659E-03   -0.13932E-04    48   0.471E-02    0.187E-02
RMM:  15    -0.149176991345E+02   -0.17682E-04   -0.12505E-05    48   0.265E-02    0.405E-03
RMM:  16    -0.149178735654E+02   -0.17443E-03   -0.90801E-06    44   0.134E-02    0.213E-03
RMM:  17    -0.149179339424E+02   -0.60377E-04   -0.29734E-06    40   0.976E-03    0.230E-03
RMM:  18    -0.149179766910E+02   -0.42749E-04   -0.14589E-06    40   0.790E-03    0.130E-03
RMM:  19    -0.149180011681E+02   -0.24477E-04   -0.11062E-06    40   0.631E-03    0.806E-04
RMM:  20    -0.149180059133E+02   -0.47452E-05   -0.17333E-07    38   0.476E-03    0.948E-04
RMM:  21    -0.149180149945E+02   -0.90812E-05   -0.37857E-07    38   0.353E-03    0.464E-04
RMM:  22    -0.149180174704E+02   -0.24759E-05   -0.22256E-07    36   0.300E-03    0.204E-04
RMM:  23    -0.149180178852E+02   -0.41482E-06   -0.55624E-08    37   0.180E-03
   1 F= -.14918317E+02 E0= -.14918317E+02  d E =-.149183E+02  mag=    -0.0000
 curvature:   0.00 expect dE= 0.000E+00 dE for cont linesearch  0.000E+00
 trial: gam= 0.00000 g(F)=  0.562E-01 g(S)=  0.247E-01 ort = 0.000E+00 (trialstep = 0.100E+01)
 search vector abs. value=  0.809E-01
 bond charge predicted
       N       E                     dE             d eps       ncg     rms          rms(c)
DAV:   1    -0.143777211211E+02    0.54030E+00   -0.20842E+01    48   0.531E+01    0.506E+00
RMM:   2    -0.143319109184E+02    0.45810E-01   -0.38599E-01    48   0.623E+00    0.304E+00
RMM:   3    -0.143116350866E+02    0.20276E-01   -0.62839E-02    48   0.250E+00    0.688E-01
RMM:   4    -0.143114526228E+02    0.18246E-03   -0.61889E-03    48   0.825E-01    0.150E-01
RMM:   5    -0.143114188144E+02    0.33808E-04   -0.23095E-03    48   0.358E-01    0.906E-02
RMM:   6    -0.143117462413E+02   -0.32743E-03   -0.17267E-04    48   0.185E-01    0.370E-02
RMM:   7    -0.143122423111E+02   -0.49607E-03   -0.79406E-05    48   0.581E-02    0.125E-02
RMM:   8    -0.143123774966E+02   -0.13519E-03   -0.13185E-05    48   0.228E-02    0.504E-03
RMM:   9    -0.143125323632E+02   -0.15487E-03   -0.11433E-05    46   0.167E-02    0.446E-03
RMM:  10    -0.143127392701E+02   -0.20691E-03   -0.29363E-05    46   0.190E-02    0.334E-03
RMM:  11    -0.143127677195E+02   -0.28449E-04   -0.37526E-06    40   0.117E-02    0.216E-03
RMM:  12    -0.143127871648E+02   -0.19445E-04   -0.17514E-06    40   0.711E-03    0.914E-04
RMM:  13    -0.143127960505E+02   -0.88857E-05   -0.27104E-07    38   0.495E-03    0.581E-04
RMM:  14    -0.143128062412E+02   -0.10191E-04   -0.29077E-07    38   0.330E-03    0.672E-04
RMM:  15    -0.143128149120E+02   -0.86708E-05   -0.40844E-07    38   0.368E-03    0.448E-04
RMM:  16    -0.143128168347E+02   -0.19227E-05   -0.11285E-07    36   0.331E-03    0.270E-04
RMM:  17    -0.143128178437E+02   -0.10090E-05   -0.49765E-08    36   0.213E-03    0.213E-04
RMM:  18    -0.143128192248E+02   -0.13811E-05   -0.51857E-08    36   0.173E-03    0.128E-04
RMM:  19    -0.143128196496E+02   -0.42479E-06   -0.19459E-08    32   0.148E-03
   2 F= -.14313133E+02 E0= -.14313133E+02  d E =0.605185E+00  mag=     0.0000
 trial-energy change:    0.605185  1 .order    0.687092   -0.080867    1.455052
 step:   0.0748(harm=  0.0527)  dis= 0.00188  next Energy=   -14.921376 (dE=-0.306E-02)
 bond charge predicted
       N       E                     dE             d eps       ncg     rms          rms(c)
DAV:   1    -0.149815390331E+02   -0.66872E+00   -0.18303E+01    48   0.473E+01    0.507E+00
RMM:   2    -0.149343381641E+02    0.47201E-01   -0.31511E-01    48   0.610E+00    0.278E+00
RMM:   3    -0.149214433823E+02    0.12895E-01   -0.47195E-02    48   0.241E+00    0.100E+00
RMM:   4    -0.149198119536E+02    0.16314E-02   -0.82218E-03    48   0.724E-01    0.156E-01
RMM:   5    -0.149197103154E+02    0.10164E-03   -0.18980E-03    48   0.337E-01    0.534E-02
RMM:   6    -0.149199647798E+02   -0.25446E-03   -0.20405E-04    48   0.140E-01    0.317E-02
RMM:   7    -0.149203844904E+02   -0.41971E-03   -0.83456E-05    48   0.739E-02    0.197E-02
RMM:   8    -0.149204872134E+02   -0.10272E-03   -0.91014E-06    46   0.257E-02    0.104E-02
RMM:   9    -0.149205393217E+02   -0.52108E-04   -0.36287E-06    44   0.127E-02    0.422E-03
RMM:  10    -0.149208088354E+02   -0.26951E-03   -0.28961E-05    46   0.224E-02    0.495E-03
RMM:  11    -0.149208294337E+02   -0.20598E-04   -0.16945E-06    40   0.137E-02    0.177E-03
RMM:  12    -0.149208530146E+02   -0.23581E-04   -0.14259E-06    40   0.700E-03    0.793E-04
RMM:  13    -0.149208643042E+02   -0.11290E-04   -0.60721E-07    38   0.606E-03    0.785E-04
RMM:  14    -0.149208706228E+02   -0.63186E-05   -0.34307E-07    38   0.450E-03    0.114E-03
RMM:  15    -0.149208764643E+02   -0.58415E-05   -0.26268E-07    38   0.395E-03    0.594E-04
RMM:  16    -0.149208780956E+02   -0.16313E-05   -0.99181E-08    36   0.322E-03    0.227E-04
RMM:  17    -0.149208798667E+02   -0.17711E-05   -0.66539E-08    36   0.215E-03    0.169E-04
RMM:  18    -0.149208807964E+02   -0.92969E-06   -0.45467E-08    34   0.177E-03
   3 F= -.14921181E+02 E0= -.14921181E+02  d E =-.286386E-02  mag=     0.0000
 curvature:  -0.03 expect dE=-0.925E-04 dE for cont linesearch -0.716E-04
 ZBRENT: interpolating
 opt :   0.0841  next Energy=   -14.921250 (dE=-0.293E-02)
 bond charge predicted
       N       E                     dE             d eps       ncg     rms          rms(c)
DAV:   1    -0.149209740797E+02   -0.94213E-04   -0.17699E-03    48   0.468E-01    0.316E-02
RMM:   2    -0.149209697183E+02    0.43614E-05   -0.35735E-05    48   0.563E-02    0.160E-02
RMM:   3    -0.149209690000E+02    0.71827E-06   -0.26456E-06    44   0.203E-02    0.867E-03
RMM:   4    -0.149209688701E+02    0.12993E-06   -0.13914E-06    38   0.109E-02    0.157E-03
RMM:   5    -0.149209688968E+02   -0.26639E-07   -0.23342E-07    36   0.876E-03
   4 F= -.14921269E+02 E0= -.14921269E+02  d E =-.295207E-02  mag=    -0.0000
 curvature:  -0.03 expect dE=-0.330E-04 dE for cont linesearch -0.493E-05
 ZBRENT: interpolating
 opt :   0.0875  next Energy=   -14.921276 (dE=-0.296E-02)
 bond charge predicted
       N       E                     dE             d eps       ncg     rms          rms(c)
DAV:   1    -0.149209767131E+02   -0.78429E-05   -0.23960E-04    72   0.171E-01    0.121E-02
RMM:   2    -0.149209758257E+02    0.88736E-06   -0.40955E-06    44   0.201E-02    0.608E-03
RMM:   3    -0.149209758544E+02   -0.28705E-07   -0.47145E-07    34   0.862E-03    0.319E-03
RMM:   4    -0.149209759723E+02   -0.11790E-06   -0.29618E-07    34   0.441E-03    0.532E-04
RMM:   5    -0.149209760512E+02   -0.78897E-07   -0.32240E-08    34   0.311E-03
   5 F= -.14921277E+02 E0= -.14921277E+02  d E =-.295926E-02  mag=    -0.0000
 curvature:  -0.03 expect dE=-0.421E-04 dE for cont linesearch -0.200E-08
 trial: gam= 0.01415 g(F)=  0.130E-03 g(S)=  0.108E-02 ort = 0.682E-04 (trialstep = 0.818E+00)
 search vector abs. value=  0.123E-02
 bond charge predicted
       N       E                     dE             d eps       ncg     rms          rms(c)
DAV:   1    -0.149258969866E+02   -0.49210E-02   -0.13513E-01    48   0.492E+00    0.456E-01
RMM:   2    -0.149224177032E+02    0.34793E-02   -0.12010E-02    48   0.118E+00    0.141E-01
RMM:   3    -0.149219034209E+02    0.51428E-03   -0.11793E-03    48   0.290E-01    0.571E-02
RMM:   4    -0.149218718276E+02    0.31593E-04   -0.49538E-04    48   0.222E-01    0.210E-02
RMM:   5    -0.149219016710E+02   -0.29843E-04   -0.69341E-05    52   0.700E-02    0.140E-02
RMM:   6    -0.149219123588E+02   -0.10688E-04   -0.69727E-06    48   0.299E-02    0.293E-03
RMM:   7    -0.149219182983E+02   -0.59395E-05   -0.10804E-06    38   0.919E-03    0.233E-03
RMM:   8    -0.149219233720E+02   -0.50737E-05   -0.13078E-06    38   0.142E-02    0.176E-03
RMM:   9    -0.149219262141E+02   -0.28421E-05   -0.49017E-07    38   0.808E-03    0.965E-04
RMM:  10    -0.149219279702E+02   -0.17561E-05   -0.26761E-07    38   0.352E-03    0.798E-04
RMM:  11    -0.149219286715E+02   -0.70127E-06   -0.10648E-07    38   0.316E-03
   6 F= -.14922234E+02 E0= -.14922234E+02  d E =-.957036E-03  mag=     0.0000
 ZBRENT: can't locate minimum, use default step
 trial-energy change:   -0.000957  1 .order   -0.000964   -0.000992   -0.000936
 step:   3.2700(harm= 14.4471)  dis= 0.00279  next Energy=   -14.930041 (dE=-0.876E-02)
 bond charge predicted
       N       E                     dE             d eps       ncg     rms          rms(c)
DAV:   1    -0.149608626858E+02   -0.38935E-01   -0.12329E+00    48   0.149E+01    0.138E+00
RMM:   2    -0.149291164251E+02    0.31746E-01   -0.11164E-01    48   0.356E+00    0.425E-01
RMM:   3    -0.149244992734E+02    0.46172E-02   -0.11595E-02    48   0.896E-01    0.170E-01
RMM:   4    -0.149242129720E+02    0.28630E-03   -0.44932E-03    48   0.681E-01    0.628E-02
RMM:   5    -0.149243905672E+02   -0.17760E-03   -0.65698E-04    52   0.213E-01    0.428E-02
RMM:   6    -0.149244260362E+02   -0.35469E-04   -0.65073E-05    48   0.901E-02    0.916E-03
RMM:   7    -0.149244474165E+02   -0.21380E-04   -0.12805E-05    52   0.290E-02    0.722E-03
RMM:   8    -0.149244633000E+02   -0.15884E-04   -0.87307E-06    48   0.250E-02    0.321E-03
RMM:   9    -0.149244692381E+02   -0.59381E-05   -0.85480E-07    38   0.562E-03    0.189E-03
RMM:  10    -0.149244736131E+02   -0.43750E-05   -0.16689E-06    40   0.931E-03    0.198E-03
RMM:  11    -0.149244733537E+02    0.25945E-06   -0.26550E-07    38   0.716E-03
   7 F= -.14924792E+02 E0= -.14924792E+02  d E =-.351544E-02  mag=     0.0000
 curvature:  -2.40 expect dE=-0.187E-02 dE for cont linesearch -0.185E-02
 ZBRENT: increasing intervall
 opt :   8.1750  next Energy=   -14.928723 (dE=-0.745E-02)
 bond charge predicted
       N       E                     dE             d eps       ncg     rms          rms(c)
DAV:   1    -0.150830146710E+02   -0.15854E+00   -0.51031E+00    72   0.302E+01    0.286E+00
RMM:   2    -0.149467345188E+02    0.13628E+00   -0.47468E-01    48   0.698E+00    0.868E-01
RMM:   3    -0.149285659732E+02    0.18169E-01   -0.59543E-02    48   0.189E+00    0.335E-01
RMM:   4    -0.149277117472E+02    0.85423E-03   -0.16791E-02    48   0.153E+00    0.117E-01
RMM:   5    -0.149282261719E+02   -0.51442E-03   -0.29485E-03    52   0.384E-01    0.100E-01
RMM:   6    -0.149283318018E+02   -0.10563E-03   -0.20397E-04    48   0.191E-01    0.425E-02
RMM:   7    -0.149283754226E+02   -0.43621E-04   -0.15513E-04    48   0.126E-01    0.206E-02
RMM:   8    -0.149283904649E+02   -0.15042E-04   -0.27499E-05    48   0.504E-02    0.622E-03
RMM:   9    -0.149284074060E+02   -0.16941E-04   -0.44846E-06    44   0.145E-02    0.359E-03
RMM:  10    -0.149284126862E+02   -0.52802E-05   -0.15861E-06    40   0.110E-02    0.303E-03
RMM:  11    -0.149284104399E+02    0.22462E-05   -0.23597E-06    40   0.107E-02    0.139E-03
RMM:  12    -0.149284121039E+02   -0.16640E-05   -0.74029E-07    38   0.703E-03    0.196E-03
RMM:  13    -0.149284164825E+02   -0.43787E-05   -0.23426E-07    38   0.580E-03    0.153E-03
RMM:  14    -0.149284201770E+02   -0.36945E-05   -0.76811E-07    38   0.794E-03    0.146E-03
RMM:  15    -0.149284220060E+02   -0.18290E-05   -0.19599E-07    38   0.480E-03    0.129E-03
RMM:  16    -0.149284230341E+02   -0.10281E-05   -0.32187E-08    34   0.169E-03    0.470E-04
RMM:  17    -0.149284233422E+02   -0.30804E-06   -0.27819E-08    34   0.120E-03
   8 F= -.14928772E+02 E0= -.14928772E+02  d E =-.749515E-02  mag=     0.0000
 curvature:  -5.11 expect dE=-0.230E-02 dE for cont linesearch -0.191E-02
 ZBRENT: increasing intervall
 opt :  17.9851  next Energy=   -14.932533 (dE=-0.113E-01)
 bond charge predicted
       N       E                     dE             d eps       ncg     rms          rms(c)
DAV:   1    -0.155899555621E+02   -0.66153E+00   -0.21483E+01    72   0.626E+01    0.595E+00
RMM:   2    -0.150087269420E+02    0.58123E+00   -0.20877E+00    48   0.146E+01    0.175E+00
RMM:   3    -0.149355643923E+02    0.73163E-01   -0.26667E-01    48   0.408E+00    0.690E-01
RMM:   4    -0.149318838032E+02    0.36806E-02   -0.68153E-02    48   0.308E+00    0.238E-01
RMM:   5    -0.149334367232E+02   -0.15529E-02   -0.12952E-02    54   0.863E-01    0.221E-01
RMM:   6    -0.149335423174E+02   -0.10559E-03   -0.82068E-04    48   0.340E-01    0.100E-01
RMM:   7    -0.149336213647E+02   -0.79047E-04   -0.84979E-04    48   0.303E-01    0.507E-02
RMM:   8    -0.149336051453E+02    0.16219E-04   -0.91522E-05    48   0.104E-01    0.134E-02
RMM:   9    -0.149336349768E+02   -0.29832E-04   -0.26553E-05    48   0.350E-02    0.934E-03
RMM:  10    -0.149336388674E+02   -0.38906E-05   -0.15241E-05    48   0.291E-02    0.807E-03
RMM:  11    -0.149336279591E+02    0.10908E-04   -0.13305E-05    48   0.184E-02    0.395E-03
RMM:  12    -0.149336370950E+02   -0.91359E-05   -0.12692E-06    40   0.164E-02    0.384E-03
RMM:  13    -0.149336549505E+02   -0.17856E-04   -0.21021E-06    40   0.122E-02    0.132E-03
RMM:  14    -0.149336599433E+02   -0.49927E-05   -0.59741E-07    38   0.739E-03    0.170E-03
RMM:  15    -0.149336645231E+02   -0.45799E-05   -0.13852E-07    38   0.386E-03    0.102E-03
RMM:  16    -0.149336680888E+02   -0.35657E-05   -0.17289E-07    36   0.287E-03    0.440E-04
RMM:  17    -0.149336697057E+02   -0.16169E-05   -0.79455E-08    36   0.268E-03    0.252E-04
RMM:  18    -0.149336703659E+02   -0.66023E-06   -0.48983E-08    36   0.222E-03
   9 F= -.14934089E+02 E0= -.14934089E+02  d E =-.128123E-01  mag=     0.0000
 curvature: -10.06 expect dE=-0.196E-01 dE for cont linesearch -0.161E-02
 ZBRENT: increasing intervall
 opt :  37.6052  next Energy=   -14.938204 (dE=-0.169E-01)
 bond charge predicted
       N       E                     dE             d eps       ncg     rms          rms(c)
DAV:   1    -0.179038564465E+02   -0.29702E+01   -0.95487E+01    72   0.140E+02    0.130E+01
RMM:   2    -0.152172789896E+02    0.26866E+01   -0.98704E+00    48   0.346E+01    0.360E+00
RMM:   3    -0.149569407714E+02    0.26034E+00   -0.16529E+00    50   0.989E+00    0.167E+00
RMM:   4    -0.149380837558E+02    0.18857E-01   -0.19696E-01    48   0.613E+00    0.651E-01
RMM:   5    -0.149418134732E+02   -0.37297E-02   -0.55476E-02    56   0.184E+00    0.450E-01
RMM:   6    -0.149424438251E+02   -0.63035E-03   -0.30250E-03    50   0.518E-01    0.258E-01
RMM:   7    -0.149425125537E+02   -0.68729E-04   -0.30091E-03    48   0.727E-01    0.856E-02
RMM:   8    -0.149424113084E+02    0.10125E-03   -0.16138E-04    48   0.163E-01    0.545E-02
RMM:   9    -0.149424759574E+02   -0.64649E-04   -0.38846E-04    48   0.183E-01    0.305E-02
RMM:  10    -0.149424373206E+02    0.38637E-04   -0.54979E-05    48   0.704E-02    0.162E-02
RMM:  11    -0.149424346079E+02    0.27128E-05   -0.21739E-05    48   0.540E-02    0.129E-02
RMM:  12    -0.149424397592E+02   -0.51513E-05   -0.20608E-05    48   0.466E-02    0.658E-03
RMM:  13    -0.149424622727E+02   -0.22514E-04   -0.11180E-06    40   0.104E-02    0.298E-03
RMM:  14    -0.149424917739E+02   -0.29501E-04   -0.32276E-06    44   0.106E-02    0.332E-03
RMM:  15    -0.149425062299E+02   -0.14456E-04   -0.80848E-07    40   0.102E-02    0.146E-03
RMM:  16    -0.149425122496E+02   -0.60197E-05   -0.47431E-07    38   0.588E-03    0.127E-03
RMM:  17    -0.149425143599E+02   -0.21103E-05   -0.20521E-07    38   0.596E-03    0.382E-04
RMM:  18    -0.149425155625E+02   -0.12026E-05   -0.94922E-08    38   0.254E-03    0.284E-04
RMM:  19    -0.149425163996E+02   -0.83707E-06   -0.56886E-08    36   0.256E-03
  10 F= -.14943134E+02 E0= -.14943134E+02  d E =-.218570E-01  mag=     0.0000
 curvature: -25.69 expect dE=-0.107E+01 dE for cont linesearch -0.771E-02
 ZBRENT: increasing intervall
 opt :  76.8454  next Energy=   -14.973398 (dE=-0.521E-01)
 bond charge predicted
       N       E                     dE             d eps       ncg     rms          rms(c)
DAV:   1    -0.296650740527E+02   -0.14723E+02   -0.47181E+02    48   0.421E+02    0.291E+01
RMM:   2    -0.155264615542E+02    0.14139E+02   -0.47396E+01    48   0.134E+02    0.947E+00
RMM:   3    -0.151389707227E+02    0.38749E+00   -0.13712E+01    54   0.370E+01    0.621E+00
RMM:   4    -0.149231318904E+02    0.21584E+00   -0.10604E+00    50   0.235E+01    0.435E+00
RMM:   5    -0.149555267173E+02   -0.32395E-01   -0.36254E-01    54   0.636E+00    0.248E+00
RMM:   6    -0.149535522857E+02    0.19744E-02   -0.19992E-01    52   0.822E+00    0.136E+00
RMM:   7    -0.149412371050E+02    0.12315E-01   -0.16829E-02    50   0.312E+00    0.354E-01
RMM:   8    -0.149410015202E+02    0.23558E-03   -0.74736E-03    52   0.143E+00    0.253E-01
RMM:   9    -0.149408880870E+02    0.11343E-03   -0.78175E-04    50   0.554E-01    0.142E-01
RMM:  10    -0.149409296505E+02   -0.41563E-04   -0.28193E-04    58   0.125E-01    0.166E-01
RMM:  11    -0.149409248313E+02    0.48192E-05   -0.34979E-06    48   0.422E-02    0.180E-01
RMM:  12    -0.149409816736E+02   -0.56842E-04   -0.24521E-05    50   0.921E-02    0.332E-02
RMM:  13    -0.149410320462E+02   -0.50373E-04   -0.36718E-05    58   0.707E-02    0.607E-02
RMM:  14    -0.149410729590E+02   -0.40913E-04   -0.55843E-06    46   0.152E-02    0.793E-02
RMM:  15    -0.149411040501E+02   -0.31091E-04   -0.46515E-06    44   0.413E-02    0.539E-02
RMM:  16    -0.149411211929E+02   -0.17143E-04   -0.38905E-06    46   0.286E-02    0.206E-02
RMM:  17    -0.149411277637E+02   -0.65708E-05   -0.11439E-06    40   0.189E-02    0.179E-02
RMM:  18    -0.149411346609E+02   -0.68972E-05   -0.15201E-06    40   0.144E-02    0.158E-02
RMM:  19    -0.149411361163E+02   -0.14554E-05   -0.43931E-07    38   0.174E-02    0.112E-02
RMM:  20    -0.149411367803E+02   -0.66407E-06   -0.13144E-07    38   0.619E-03
  11 F= -.14942624E+02 E0= -.14942624E+02  d E =-.213475E-01  mag=    -0.0000
 curvature: ****** expect dE=-0.941E+02 dE for cont linesearch -0.280E-01
 ZBRENT: increasing intervall
 opt : 155.3257  next Energy=   -14.986676 (dE=-0.654E-01)
 bond charge predicted
       N       E                     dE             d eps       ncg     rms          rms(c)
DAV:   1    -0.132731340263E+03   -0.11779E+03   -0.32240E+03    72   0.904E+02    0.886E+01
RMM:   2    -0.145130846222E+02    0.11822E+03   -0.37192E+02    58   0.322E+02    0.272E+02
RMM:   3    -0.197599325540E+02   -0.52468E+01   -0.68532E+01    58   0.823E+01    0.640E+01
RMM:   4    -0.156655672539E+02    0.40944E+01   -0.75655E+00    56   0.358E+01    0.171E+01
RMM:   5    -0.144669103710E+02    0.11987E+01   -0.27703E+00    50   0.429E+01    0.952E+00
RMM:   6    -0.144365366896E+02    0.30374E-01   -0.17861E+00    58   0.129E+01    0.147E+01
RMM:   7    -0.143986497901E+02    0.37887E-01   -0.94118E-02    58   0.696E+00    0.169E+01
RMM:   8    -0.143878980501E+02    0.10752E-01   -0.25239E-02    50   0.176E+00    0.170E+01
RMM:   9    -0.143853035558E+02    0.25945E-02   -0.86709E-03    50   0.389E+00    0.158E+01
RMM:  10    -0.143830480739E+02    0.22555E-02   -0.44806E-03    56   0.572E-01    0.135E+01
RMM:  11    -0.143834799835E+02   -0.43191E-03   -0.20493E-04    52   0.342E-01    0.134E+01
RMM:  12    -0.143815797705E+02    0.19002E-02   -0.56058E-04    56   0.419E-01    0.116E+01
RMM:  13    -0.143788129904E+02    0.27668E-02   -0.15602E-03    56   0.510E-01    0.912E+00
RMM:  14    -0.143776541610E+02    0.11588E-02   -0.37793E-04    56   0.376E-01    0.804E+00
RMM:  15    -0.143756038966E+02    0.20503E-02   -0.12638E-03    56   0.645E-01    0.535E+00
RMM:  16    -0.143745973561E+02    0.10065E-02   -0.14721E-03    58   0.622E-01    0.295E+00
RMM:  17    -0.143742516037E+02    0.34575E-03   -0.51335E-04    58   0.298E-01    0.127E+00
RMM:  18    -0.143741677927E+02    0.83811E-04   -0.14671E-04    56   0.141E-01    0.578E-01
RMM:  19    -0.143741489115E+02    0.18881E-04   -0.46010E-05    54   0.901E-02    0.253E-01
RMM:  20    -0.143741478664E+02    0.10451E-05   -0.13227E-05    50   0.670E-02    0.115E-01
RMM:  21    -0.143741479827E+02   -0.11622E-06   -0.55428E-06    48   0.609E-02
  12 F= -.14390020E+02 E0= -.14390020E+02  d E =0.531256E+00  mag=    -0.0000
 curvature: ****** expect dE=-0.475E+04 dE for cont linesearch -0.372E+01
 ZBRENT: increasing intervall
 opt : 312.2864  next Energy=   -15.984153 (dE=-0.106E+01)
 bond charge predicted
       N       E                     dE             d eps       ncg     rms          rms(c)
 ERROR FEXCF: supplied exchange-correlation table
    is too small, maximal index :       20337
