 running on   24 total cores
 distrk:  each k-point on   24 cores,    1 groups
 distr:  one band on    4 cores,    6 groups
 using from now: INCAR     
 vasp.5.4.4.18Apr17-6-g9f103f2a35 (build May 21 2019 18:55:53) complex          
  
 POSCAR found type information on POSCAR  C  O 
 POSCAR found :  2 types and       2 ions
 WARNING: type information on POSCAR and POTCAR are incompatible
 POTCAR overwrites the type information in POSCAR
 typ   1 type information:  C  O 
 WARNING: type information on POSCAR and POTCAR are incompatible
 POTCAR overwrites the type information in POSCAR
 typ   2 type information:  O  C 

 ----------------------------------------------------------------------------- 
|                                                                             |
|  ADVICE TO THIS USER RUNNING 'VASP/VAMP'   (HEAR YOUR MASTER'S VOICE ...):  |
|                                                                             |
|      You have a (more or less) 'small supercell' and for smaller cells      |
|      it is recommended  to use the reciprocal-space projection scheme!      |
|      The real space optimization is not  efficient for small cells and it   |
|      is also less accurate ...                                              |
|      Therefore set LREAL=.FALSE. in the  INCAR file                         |
|                                                                             |
 ----------------------------------------------------------------------------- 

 LDA part: xc-table for Pade appr. of Perdew
 POSCAR found type information on POSCAR  C  O 
 POSCAR found :  2 types and       2 ions
 POSCAR, INCAR and KPOINTS ok, starting setup
 FFT: planning ...
 WAVECAR not read
 WARNING: random wavefunctions but no delay for mixing, default for NELMDL
 entering main loop
       N       E                     dE             d eps       ncg     rms          rms(c)
DAV:   1     0.628317180860E+02    0.62832E+02   -0.12863E+03    96   0.283E+02
DAV:   2     0.368048978662E+02   -0.26027E+02   -0.25785E+02    72   0.474E+01
DAV:   3     0.466590472008E+01   -0.32139E+02   -0.30694E+02    96   0.542E+01
DAV:   4    -0.717624116483E+01   -0.11842E+02   -0.11842E+02    48   0.343E+01
DAV:   5    -0.748580262142E+01   -0.30956E+00   -0.30956E+00    48   0.142E+01    0.148E+01
RMM:   6    -0.412288439845E+02   -0.33743E+02   -0.19441E+01    48   0.226E+01    0.376E+01
RMM:   7    -0.138394121865E+01    0.39845E+02   -0.54753E+00    49   0.110E+01    0.322E+01
RMM:   8    -0.678970154766E+01   -0.54058E+01   -0.49548E+00    52   0.172E+01    0.141E+01
RMM:   9    -0.515502258524E+01    0.16347E+01   -0.31185E-01    54   0.251E+00    0.141E+01
RMM:  10    -0.301164631811E+01    0.21434E+01   -0.14700E-01    54   0.246E+00    0.133E+01
RMM:  11    -0.351187778458E+01   -0.50023E+00   -0.35164E-03    48   0.539E-01    0.134E+01
RMM:  12    -0.134526081798E+01    0.21666E+01   -0.36261E-01    54   0.271E+00    0.312E+01
RMM:  13    -0.971514362777E+00    0.37375E+00   -0.42036E-02    48   0.120E+00    0.130E+01
RMM:  14    -0.744511130012E+00    0.22700E+00   -0.35397E-03    48   0.611E-01    0.129E+01
RMM:  15    -0.133826112598E+01   -0.59375E+00   -0.25999E-02    58   0.574E-01    0.310E+01
RMM:  16    -0.298351390898E+01   -0.16453E+01   -0.33058E-01    54   0.367E+00    0.141E+01
RMM:  17    -0.350945978017E+01   -0.52595E+00   -0.10067E-02    48   0.106E+00    0.140E+01
RMM:  18    -0.315859486202E+01    0.35086E+00   -0.10617E-02    48   0.880E-01    0.138E+01
RMM:  19    -0.312116284478E+01    0.37432E-01   -0.15693E-03    54   0.240E-01    0.137E+01
RMM:  20    -0.345149096473E+01   -0.33033E+00   -0.74606E-04    50   0.134E-01    0.138E+01
RMM:  21    -0.409076208281E+01   -0.63927E+00   -0.56311E-03    50   0.320E-01    0.139E+01
RMM:  22    -0.386960135292E+01    0.22116E+00   -0.32453E-04    50   0.191E-01    0.139E+01
RMM:  23    -0.431049486521E+01   -0.44089E+00   -0.21805E-03    54   0.196E-01    0.139E+01
RMM:  24    -0.412381193384E+01    0.18668E+00   -0.21176E-04    54   0.667E-02    0.139E+01
RMM:  25    -0.456901324876E+01   -0.44520E+00   -0.17481E-03    48   0.154E-01    0.140E+01
RMM:  26    -0.265024590057E+01    0.19188E+01   -0.29777E-02    52   0.612E-01    0.137E+01
RMM:  27    -0.597315263506E+00    0.20529E+01   -0.30114E-01    54   0.251E+00    0.162E+01
RMM:  28    -0.144572554507E+01   -0.84841E+00   -0.18379E-02    52   0.922E-01    0.135E+01
RMM:  29    -0.148342379011E+02   -0.13389E+02   -0.17383E+00    48   0.550E+00    0.317E+01
RMM:  30    -0.941444861781E+01    0.54198E+01   -0.40082E+00    54   0.105E+01    0.163E+01
RMM:  31    -0.250847009541E+02   -0.15670E+02   -0.89555E+00    48   0.121E+01    0.322E+01
RMM:  32    -0.788109009040E+01    0.17204E+02   -0.24446E+00    48   0.712E+00    0.158E+01
RMM:  33    -0.207770275650E+01    0.58034E+01   -0.83725E-01    48   0.764E+00    0.307E+01
RMM:  34    -0.155683436727E+02   -0.13491E+02   -0.12006E+00    48   0.560E+00    0.142E+01
RMM:  35    -0.148350667047E+02    0.73328E+00   -0.24145E-01    52   0.297E+00    0.149E+01
RMM:  36    -0.106719606809E+02    0.41631E+01   -0.12654E-01    48   0.232E+00    0.148E+01
RMM:  37    -0.459370460255E+01    0.60783E+01   -0.37383E-01    52   0.214E+00    0.141E+01
RMM:  38    -0.572784594855E+01   -0.11341E+01   -0.33888E+00    54   0.883E+00    0.310E+01
RMM:  39    -0.122843444600E+02   -0.65565E+01   -0.14804E+00    53   0.495E+00    0.148E+01
RMM:  40    -0.287978315052E+01    0.94046E+01   -0.66904E-01    53   0.322E+00    0.137E+01
RMM:  41    -0.965959533822E+00    0.19138E+01   -0.89566E-01    54   0.353E+00    0.296E+01
RMM:  42    -0.114237882924E+02   -0.10458E+02   -0.10035E+00    58   0.365E+00    0.144E+01
RMM:  43    -0.560243569795E+01    0.58214E+01   -0.20442E-01    51   0.253E+00    0.142E+01
RMM:  44    -0.800427893602E+00    0.48020E+01   -0.20362E+00    54   0.687E+00    0.268E+01
RMM:  45    -0.891215722435E+01   -0.81117E+01   -0.69196E-01    60   0.325E+00    0.143E+01
RMM:  46    -0.408612168450E+01    0.48260E+01   -0.14801E-01    52   0.198E+00    0.140E+01
RMM:  47    -0.235187008464E+01    0.17343E+01   -0.43585E-02    54   0.764E-01    0.138E+01
RMM:  48    -0.820965387588E+00    0.15309E+01   -0.46233E-01    54   0.270E+00    0.274E+01
RMM:  49    -0.865817990353E+01   -0.78372E+01   -0.69351E-01    59   0.328E+00    0.143E+01
RMM:  50    -0.271061075348E+01    0.59476E+01   -0.24624E-01    54   0.210E+00    0.138E+01
RMM:  51    -0.217551320168E+01    0.53510E+00   -0.81263E-01    54   0.497E+00    0.309E+01
RMM:  52    -0.119957556800E+02   -0.98202E+01   -0.11737E+00    50   0.418E+00    0.149E+01
RMM:  53    -0.900375045630E+01    0.29920E+01   -0.73987E-02    49   0.300E+00    0.145E+01
RMM:  54    -0.344132597169E+01    0.55624E+01   -0.26461E-01    49   0.189E+00    0.138E+01
RMM:  55    -0.753430560717E+00    0.26879E+01   -0.12969E-01    53   0.160E+00    0.133E+01
RMM:  56    -0.503144291424E+01   -0.42780E+01   -0.61050E-01    57   0.356E+00    0.311E+01
RMM:  57    -0.126255538932E+02   -0.75941E+01   -0.17987E+00    48   0.513E+00    0.150E+01
RMM:  58    -0.212872093133E+01    0.10497E+02   -0.32727E+00    48   0.689E+00    0.306E+01
RMM:  59    -0.818816952372E+01   -0.60594E+01   -0.32779E-01    48   0.439E+00    0.141E+01
RMM:  60    -0.332737456239E+01    0.48608E+01   -0.10848E-01    53   0.142E+00    0.138E+01
RMM:  61    -0.414626336113E+01   -0.81889E+00   -0.69367E-03    53   0.531E-01    0.140E+01
RMM:  62    -0.338869212879E+01    0.75757E+00   -0.60434E-03    54   0.380E-01    0.138E+01
RMM:  63    -0.264053269786E+01    0.74816E+00   -0.10141E-02    54   0.470E-01    0.137E+01
RMM:  64    -0.190660414998E+01    0.73393E+00   -0.10392E-02    54   0.443E-01    0.135E+01
RMM:  65    -0.105788101920E+01    0.84872E+00   -0.12805E-02    51   0.476E-01    0.133E+01
RMM:  66    -0.176984477786E+01   -0.71196E+00   -0.52035E-03    54   0.387E-01    0.134E+01
RMM:  67    -0.803826741121E+00    0.96602E+00   -0.11493E-02    54   0.485E-01    0.132E+01
RMM:  68    -0.351014097742E+01   -0.27063E+01   -0.14488E-01    54   0.171E+00    0.311E+01
RMM:  69    -0.992568970164E+01   -0.64155E+01   -0.13065E+00    48   0.500E+00    0.147E+01
RMM:  70    -0.755279191073E+01    0.23729E+01   -0.71335E-02    48   0.396E+00    0.147E+01
RMM:  71    -0.525238542469E+01    0.23004E+01   -0.65231E-02    54   0.140E+00    0.143E+01
RMM:  72    -0.361906507429E+01    0.16333E+01   -0.46297E-02    54   0.961E-01    0.139E+01
RMM:  73    -0.328426309397E+01    0.33480E+00   -0.42396E-03    54   0.247E-01    0.138E+01
RMM:  74    -0.299582388475E+01    0.28844E+00   -0.20414E-03    54   0.291E-01    0.137E+01
RMM:  75    -0.246993012571E+01    0.52589E+00   -0.50487E-03    54   0.332E-01    0.136E+01
RMM:  76    -0.868103849581E+00    0.16018E+01   -0.41793E-02    54   0.920E-01    0.133E+01
RMM:  77    -0.813068916729E+00    0.55035E-01   -0.14557E-03    54   0.154E-01    0.132E+01
RMM:  78    -0.695499010835E+00    0.11757E+00   -0.41416E-04    54   0.116E-01    0.129E+01
RMM:  79    -0.761677997933E+01   -0.69213E+01   -0.40916E-01    60   0.275E+00    0.314E+01
RMM:  80    -0.199417792696E+02   -0.12325E+02   -0.60575E+00    54   0.120E+01    0.168E+01
RMM:  81    -0.231218074185E+02   -0.31800E+01   -0.19501E+01    48   0.154E+01    0.323E+01
RMM:  82    -0.100148468594E+02    0.13107E+02   -0.39805E-01    48   0.792E+00    0.316E+01
RMM:  83    -0.523362673949E+01    0.47812E+01   -0.12567E+00    54   0.676E+00    0.148E+01
RMM:  84    -0.317424106613E+02   -0.26509E+02   -0.78135E+00    48   0.108E+01    0.331E+01
RMM:  85    -0.342572969485E+02   -0.25149E+01   -0.21181E-01    54   0.212E+00    0.330E+01
RMM:  86    -0.244462770170E+02    0.98110E+01   -0.32408E-01    51   0.266E+00    0.324E+01
RMM:  87    -0.245785158900E+02   -0.13224E+00   -0.12743E+01    50   0.171E+01    0.168E+01
RMM:  88    -0.306491753097E+02   -0.60707E+01   -0.32684E+01    48   0.198E+01    0.328E+01
RMM:  89    -0.163692794151E+02    0.14280E+02   -0.55222E+00    49   0.180E+01    0.156E+01
RMM:  90    -0.120772268358E+02    0.42921E+01   -0.36092E-01    52   0.383E+00    0.157E+01
RMM:  91    -0.880334859887E+01    0.32739E+01   -0.12456E-01    54   0.205E+00    0.151E+01
RMM:  92    -0.678763668448E+01    0.20157E+01   -0.78808E-02    54   0.141E+00    0.146E+01
RMM:  93    -0.364158461829E+01    0.31461E+01   -0.17364E-01    54   0.200E+00    0.139E+01
RMM:  94    -0.503580339563E+01   -0.13942E+01   -0.15081E+00    54   0.546E+00    0.312E+01
RMM:  95    -0.913129439823E+01   -0.40955E+01   -0.11063E+00    48   0.427E+00    0.147E+01
RMM:  96    -0.453152446980E+01    0.45998E+01   -0.13401E-01    48   0.312E+00    0.142E+01
RMM:  97    -0.395120645528E+01    0.58032E+00   -0.13929E+00    48   0.463E+00    0.309E+01
RMM:  98    -0.662630004319E+01   -0.26751E+01   -0.45797E-01    54   0.331E+00    0.141E+01
RMM:  99    -0.354022268017E+01    0.30861E+01   -0.15279E+00    54   0.690E+00    0.310E+01
RMM: 100    -0.739276750259E+01   -0.38525E+01   -0.62598E-01    48   0.335E+00
   1 F= -.73931071E+01 E0= -.73931071E+01  d E =-.739311E+01  mag=    -0.0031
 curvature:   0.00 expect dE= 0.000E+00 dE for cont linesearch  0.000E+00
 trial: gam= 0.00000 g(F)=  0.425E-04 g(S)=  0.000E+00 ort = 0.000E+00 (trialstep = 0.100E+01)
 search vector abs. value=  0.425E-04
 bond charge predicted
       N       E                     dE             d eps       ncg     rms          rms(c)
DAV:   1    -0.523130409147E+01   -0.16911E+01   -0.69644E+01    72   0.671E+00    0.312E+01
RMM:   2    -0.723197856654E+02   -0.67088E+02   -0.11657E+02    48   0.847E+01    0.373E+01
RMM:   3    -0.350027681712E+02    0.37317E+02   -0.99165E+00    48   0.270E+01    0.262E+01
RMM:   4    -0.114990424576E+02    0.23504E+02   -0.18607E+01    48   0.355E+01    0.173E+01
RMM:   5    -0.629870928373E+01    0.52003E+01   -0.53668E+00    54   0.110E+01    0.144E+01
RMM:   6    -0.453063168636E+01    0.17681E+01   -0.17203E-01    54   0.252E+00    0.145E+01
RMM:   7    -0.523707655859E+00    0.40069E+01   -0.35605E-01    52   0.260E+00    0.616E+00
RMM:   8    -0.100758390551E+01   -0.48388E+00   -0.19010E-01    57   0.271E+00    0.299E+01
RMM:   9    -0.746641918632E+00    0.26094E+00   -0.74842E-03    54   0.666E-01    0.135E+01
RMM:  10    -0.646318047637E+00    0.10032E+00   -0.88249E-03    48   0.602E-01    0.193E+01
RMM:  11    -0.122856281235E+01   -0.58224E+00   -0.15723E-02    48   0.745E-01    0.132E+01
RMM:  12    -0.106695472360E+01    0.16161E+00   -0.11834E-03    48   0.403E-01    0.132E+01
RMM:  13    -0.549450764507E+00    0.51750E+00   -0.32686E-03    48   0.250E-01    0.738E+00
RMM:  14    -0.559655982948E+00   -0.10205E-01   -0.26847E-04    52   0.145E-01    0.755E+00
RMM:  15    -0.560462352944E+00   -0.80637E-03   -0.88365E-05    55   0.581E-02    0.750E+00
RMM:  16    -0.545545890390E+00    0.14916E-01   -0.25686E-04    51   0.131E-01    0.563E+00
RMM:  17    -0.554018790983E+00   -0.84729E-02   -0.39673E-04    54   0.163E-01    0.641E+00
RMM:  18    -0.568288346576E+00   -0.14270E-01   -0.55185E-04    53   0.205E-01    0.908E+00
RMM:  19    -0.543682897631E+00    0.24605E-01   -0.15422E-04    48   0.148E-01    0.558E+00
RMM:  20    -0.543494359500E+00    0.18854E-03   -0.20897E-04    48   0.191E-01    0.595E+00
RMM:  21    -0.537724649232E+00    0.57697E-02   -0.26227E-04    51   0.128E-01    0.279E+00
RMM:  22    -0.538182360677E+00   -0.45771E-03   -0.24412E-04    48   0.218E-01    0.195E+00
RMM:  23    -0.539238093889E+00   -0.10557E-02   -0.62436E-04    48   0.218E-01    0.705E+00
RMM:  24    -0.539027416851E+00    0.21068E-03   -0.45648E-04    48   0.280E-01    0.367E+00
RMM:  25    -0.547717403090E+00   -0.86900E-02   -0.98423E-04    49   0.288E-01    0.843E+00
RMM:  26    -0.668525881468E+00   -0.12081E+00   -0.25240E-03    48   0.354E-01    0.206E+01
RMM:  27    -0.627678049947E+00    0.40848E-01   -0.77889E-04    48   0.436E-01    0.200E+01
RMM:  28    -0.544439051707E+00    0.83239E-01   -0.20046E-03    48   0.394E-01    0.138E+01
RMM:  29    -0.435455301077E+00    0.10898E+00   -0.31739E-03    48   0.667E-01    0.764E+00
RMM:  30    -0.524513698585E+00   -0.89058E-01   -0.15886E-03    48   0.523E-01    0.400E+00
RMM:  31    -0.459394561456E+00    0.65119E-01   -0.14666E-03    48   0.437E-01    0.269E+00
RMM:  32    -0.571828111242E+00   -0.11243E+00   -0.15273E-03    48   0.410E-01    0.110E+01
RMM:  33    -0.561254441325E+00    0.10574E-01   -0.13290E-03    48   0.408E-01    0.742E+00
RMM:  34    -0.515387583157E+00    0.45867E-01   -0.87373E-04    49   0.334E-01    0.348E+00
RMM:  35    -0.584059845567E+00   -0.68672E-01   -0.46863E-04    49   0.228E-01    0.103E+01
RMM:  36    -0.565918526188E+00    0.18141E-01   -0.33574E-04    48   0.231E-01    0.844E+00
RMM:  37    -0.531321553048E+00    0.34597E-01   -0.39284E-04    48   0.172E-01    0.407E+00
RMM:  38    -0.565767534531E+00   -0.34446E-01   -0.67978E-04    49   0.284E-01    0.106E+01
RMM:  39    -0.561849009005E+00    0.39185E-02   -0.31142E-04    48   0.247E-01    0.102E+01
RMM:  40    -0.532960364573E+00    0.28889E-01   -0.37311E-04    54   0.136E-01    0.416E+00
RMM:  41    -0.543931148043E+00   -0.10971E-01   -0.31811E-04    48   0.233E-01    0.316E+00
RMM:  42    -0.541381887926E+00    0.25493E-02   -0.12070E-04    48   0.145E-01    0.158E-01
RMM:  43    -0.547384071856E+00   -0.60022E-02   -0.72419E-05    48   0.100E-01    0.338E+00
RMM:  44    -0.552836813222E+00   -0.54527E-02   -0.14972E-04    48   0.103E-01    0.601E+00
RMM:  45    -0.540879077206E+00    0.11958E-01   -0.13452E-04    48   0.163E-01    0.425E-01
RMM:  46    -0.557461009807E+00   -0.16582E-01   -0.15872E-04    49   0.108E-01    0.598E+00
RMM:  47    -0.542611658599E+00    0.14849E-01   -0.17447E-04    48   0.153E-01    0.242E+00
RMM:  48    -0.544000576263E+00   -0.13889E-02   -0.89327E-05    48   0.143E-01    0.346E-01
RMM:  49    -0.544258121190E+00   -0.25754E-03   -0.27785E-05    48   0.722E-02    0.376E-01
RMM:  50    -0.544425247167E+00   -0.16713E-03   -0.89751E-06    47   0.421E-02    0.194E-01
RMM:  51    -0.545306448267E+00   -0.88120E-03   -0.70998E-06    46   0.274E-02    0.154E+00
RMM:  52    -0.544225904281E+00    0.10805E-02   -0.14792E-05    48   0.468E-02    0.667E-01
RMM:  53    -0.544575451184E+00   -0.34955E-03   -0.10606E-05    48   0.500E-02    0.351E-01
RMM:  54    -0.544537292261E+00    0.38159E-04   -0.14338E-06    35   0.160E-02    0.333E-02
RMM:  55    -0.544657765247E+00   -0.12047E-03   -0.12773E-06    36   0.138E-02    0.361E-01
RMM:  56    -0.544605032407E+00    0.52733E-04   -0.17483E-06    37   0.190E-02    0.265E-01
RMM:  57    -0.544624393495E+00   -0.19361E-04   -0.13397E-06    37   0.174E-02    0.258E-02
RMM:  58    -0.544654363491E+00   -0.29970E-04   -0.27403E-07    32   0.707E-03    0.928E-03
RMM:  59    -0.544656805419E+00   -0.24419E-05   -0.10652E-07    32   0.437E-03    0.347E-03
RMM:  60    -0.544663278712E+00   -0.64733E-05   -0.60133E-08    28   0.265E-03    0.102E-03
RMM:  61    -0.544670219431E+00   -0.69407E-05   -0.72332E-08    30   0.208E-03    0.634E-03
RMM:  62    -0.544675309735E+00   -0.50903E-05   -0.69395E-08    28   0.239E-03    0.442E-03
RMM:  63    -0.544675635843E+00   -0.32611E-06   -0.51793E-08    29   0.231E-03
   2 F= -.54501593E+00 E0= -.47158656E+00  d E =0.684809E+01  mag=    -0.0007
 ZBRENT: can't locate minimum, use default step
 trial-energy change:    6.848091  1 .order   -0.000039   -0.000043   -0.000036
 step:   4.0000(harm=  6.9929)  dis= 0.00294  next Energy=    -7.393256 (dE=-0.149E-03)
 bond charge predicted
       N       E                     dE             d eps       ncg     rms          rms(c)
DAV:   1    -0.544665102261E+00    0.10207E-04   -0.78427E-02    48   0.277E+00    0.630E-02
RMM:   2    -0.587674737560E+00   -0.43010E-01   -0.14784E-03    48   0.288E-01    0.124E+01
RMM:   3    -0.532682420979E+00    0.54992E-01   -0.39164E-04    48   0.192E-01    0.188E-01
RMM:   4    -0.545367471865E+00   -0.12685E-01   -0.28043E-04    51   0.159E-01    0.201E+00
RMM:   5    -0.532680981962E+00    0.12686E-01   -0.36950E-04    48   0.225E-01    0.227E-01
RMM:   6    -0.541955102467E+00   -0.92741E-02   -0.12628E-04    48   0.141E-01    0.285E-01
RMM:   7    -0.542850396953E+00   -0.89529E-03   -0.18055E-05    51   0.444E-02    0.327E-01
RMM:   8    -0.541110711726E+00    0.17397E-02   -0.78876E-05    48   0.115E-01    0.287E-01
RMM:   9    -0.542401815996E+00   -0.12911E-02   -0.25763E-05    54   0.444E-02    0.444E-01
RMM:  10    -0.539491046817E+00    0.29108E-02   -0.68393E-05    48   0.111E-01    0.260E-01
RMM:  11    -0.543727509706E+00   -0.42365E-02   -0.82370E-05    48   0.112E-01    0.280E-01
RMM:  12    -0.543839090733E+00   -0.11158E-03   -0.43834E-05    48   0.969E-02    0.271E-01
RMM:  13    -0.543197199789E+00    0.64189E-03   -0.20347E-05    48   0.564E-02    0.245E-01
RMM:  14    -0.542163619180E+00    0.10336E-02   -0.30509E-05    48   0.659E-02    0.210E-01
RMM:  15    -0.542930649914E+00   -0.76703E-03   -0.12801E-05    47   0.387E-02    0.146E-01
RMM:  16    -0.543750688956E+00   -0.82004E-03   -0.27339E-05    48   0.664E-02    0.100E-01
RMM:  17    -0.544370880384E+00   -0.62019E-03   -0.11075E-05    46   0.404E-02    0.893E-02
RMM:  18    -0.544664913393E+00   -0.29403E-03   -0.96151E-06    45   0.416E-02    0.892E-02
RMM:  19    -0.544600844187E+00    0.64069E-04   -0.16905E-06    37   0.172E-02    0.758E-02
RMM:  20    -0.544624194446E+00   -0.23350E-04   -0.18412E-06    41   0.200E-02    0.635E-02
RMM:  21    -0.544721643354E+00   -0.97449E-04   -0.10267E-06    32   0.135E-02    0.562E-02
RMM:  22    -0.544747749356E+00   -0.26106E-04   -0.10848E-06    34   0.146E-02    0.553E-02
RMM:  23    -0.544741471503E+00    0.62779E-05   -0.32906E-07    32   0.721E-03    0.584E-02
RMM:  24    -0.544674919744E+00    0.66552E-04   -0.92385E-07    35   0.136E-02    0.528E-02
RMM:  25    -0.544708099934E+00   -0.33180E-04   -0.51926E-07    32   0.995E-03    0.263E-02
RMM:  26    -0.544778056708E+00   -0.69957E-04   -0.11045E-06    33   0.149E-02    0.305E-02
RMM:  27    -0.544720125112E+00    0.57932E-04   -0.72920E-07    32   0.115E-02    0.212E-02
RMM:  28    -0.544711373159E+00    0.87520E-05   -0.52010E-07    32   0.996E-03    0.142E-02
RMM:  29    -0.544740399225E+00   -0.29026E-04   -0.32684E-07    32   0.732E-03    0.536E-03
RMM:  30    -0.544789447014E+00   -0.49048E-04   -0.74077E-07    34   0.103E-02    0.560E-03
RMM:  31    -0.544789569220E+00   -0.12221E-06   -0.19172E-07    30   0.577E-03
   3 F= -.54513197E+00 E0= -.47169291E+00  d E =0.684798E+01  mag=    -0.0004
 curvature:  -2.62 expect dE=-0.832E-04 dE for cont linesearch -0.832E-04
 ZBRENT: increasing intervall
 opt :  10.0000  next Energy=    -0.545354 (dE= 0.685E+01)
 bond charge predicted
       N       E                     dE             d eps       ncg     rms          rms(c)
DAV:   1    -0.544530456862E+00    0.25899E-03   -0.31386E-01    48   0.554E+00    0.113E-01
RMM:   2    -0.678533834973E+00   -0.13400E+00   -0.54391E-03    48   0.558E-01    0.210E+01
RMM:   3    -0.517752394840E+00    0.16078E+00   -0.11893E-03    48   0.320E-01    0.312E-01
RMM:   4    -0.545194119529E+00   -0.27442E-01   -0.48923E-04    50   0.245E-01    0.241E+00
RMM:   5    -0.481570457998E+00    0.63624E-01   -0.15601E-03    48   0.378E-01    0.961E-01
RMM:   6    -0.524048556484E+00   -0.42478E-01   -0.49115E-04    48   0.215E-01    0.124E+00
RMM:   7    -0.505460572031E+00    0.18588E-01   -0.23833E-04    48   0.148E-01    0.471E-01
RMM:   8    -0.535153460374E+00   -0.29693E-01   -0.40050E-04    48   0.198E-01    0.716E-01
RMM:   9    -0.520973741049E+00    0.14180E-01   -0.33953E-04    48   0.227E-01    0.230E-01
RMM:  10    -0.539708661650E+00   -0.18735E-01   -0.21224E-04    48   0.166E-01    0.496E-01
RMM:  11    -0.536764531121E+00    0.29441E-02   -0.15053E-04    48   0.174E-01    0.320E-01
RMM:  12    -0.542942478206E+00   -0.61779E-02   -0.12618E-04    48   0.142E-01    0.444E-01
RMM:  13    -0.542031600281E+00    0.91088E-03   -0.48332E-05    48   0.107E-01    0.390E-01
RMM:  14    -0.542804224530E+00   -0.77262E-03   -0.21793E-05    48   0.592E-02    0.369E-01
RMM:  15    -0.543298480635E+00   -0.49426E-03   -0.16948E-05    48   0.578E-02    0.355E-01
RMM:  16    -0.543657933785E+00   -0.35945E-03   -0.59293E-06    46   0.317E-02    0.260E-01
RMM:  17    -0.544139632407E+00   -0.48170E-03   -0.13881E-05    47   0.512E-02    0.243E-01
RMM:  18    -0.544397857586E+00   -0.25823E-03   -0.34189E-06    42   0.213E-02    0.881E-02
RMM:  19    -0.544862216907E+00   -0.46436E-03   -0.12094E-05    42   0.424E-02    0.909E-02
RMM:  20    -0.544823526917E+00    0.38690E-04   -0.26247E-06    38   0.216E-02    0.880E-02
RMM:  21    -0.544505081849E+00    0.31845E-03   -0.80205E-06    41   0.369E-02    0.844E-02
RMM:  22    -0.544206224231E+00    0.29886E-03   -0.57862E-06    39   0.273E-02    0.121E-01
RMM:  23    -0.543800304266E+00    0.40592E-03   -0.29288E-06    38   0.226E-02    0.124E-01
RMM:  24    -0.543594509117E+00    0.20580E-03   -0.83696E-07    33   0.121E-02    0.601E-02
RMM:  25    -0.544503083313E+00   -0.90857E-03   -0.89539E-06    44   0.352E-02    0.512E-02
RMM:  26    -0.544728917501E+00   -0.22583E-03   -0.29197E-06    38   0.219E-02    0.268E-02
RMM:  27    -0.544953982523E+00   -0.22507E-03   -0.30219E-06    38   0.205E-02    0.332E-02
RMM:  28    -0.544946403948E+00    0.75786E-05   -0.72064E-07    32   0.126E-02    0.208E-02
RMM:  29    -0.544987547790E+00   -0.41144E-04   -0.68788E-07    32   0.109E-02    0.775E-03
RMM:  30    -0.545006521077E+00   -0.18973E-04   -0.21665E-07    32   0.563E-03    0.481E-03
RMM:  31    -0.545020000441E+00   -0.13479E-04   -0.23713E-07    30   0.591E-03    0.246E-03
RMM:  32    -0.545018381425E+00    0.16190E-05   -0.79455E-08    30   0.327E-03    0.194E-03
RMM:  33    -0.545022785293E+00   -0.44039E-05   -0.76990E-08    30   0.287E-03    0.136E-03
RMM:  34    -0.545023476532E+00   -0.69124E-06   -0.29843E-08    28   0.167E-03
   4 F= -.54537014E+00 E0= -.47194790E+00  d E =0.684774E+01  mag=    -0.0001
 curvature:  -7.00 expect dE=-0.225E-03 dE for cont linesearch -0.225E-03
 ZBRENT: increasing intervall
 opt :  22.0000  next Energy=    -0.545817 (dE= 0.685E+01)
 bond charge predicted
       N       E                     dE             d eps       ncg     rms          rms(c)
DAV:   1    -0.543592769324E+00    0.14300E-02   -0.12561E+00    48   0.111E+01    0.237E-01
RMM:   2    -0.105233687964E+01   -0.50874E+00   -0.21849E-02    48   0.112E+00    0.303E+01
RMM:   3    -0.498128739899E+00    0.55421E+00   -0.46864E-03    48   0.550E-01    0.643E-01
RMM:   4    -0.541761300238E+00   -0.43633E-01   -0.78726E-04    48   0.359E-01    0.139E+00
RMM:   5    -0.537833612890E+00    0.39277E-02   -0.79121E-04    48   0.303E-01    0.345E+00
RMM:   6    -0.276046465695E+00    0.26179E+00   -0.59066E-03    48   0.614E-01    0.225E+00
RMM:   7    -0.465927617272E+00   -0.18988E+00   -0.24013E-03    48   0.432E-01    0.142E+00
RMM:   8    -0.518855127245E+00   -0.52928E-01   -0.83394E-04    48   0.286E-01    0.691E-01
RMM:   9    -0.533840987720E+00   -0.14986E-01   -0.26236E-04    48   0.170E-01    0.101E+00
RMM:  10    -0.505338745752E+00    0.28502E-01   -0.48660E-04    48   0.266E-01    0.447E-01
RMM:  11    -0.540891467040E+00   -0.35553E-01   -0.44497E-04    48   0.230E-01    0.812E-01
RMM:  12    -0.535560947279E+00    0.53305E-02   -0.21657E-04    48   0.213E-01    0.460E-01
RMM:  13    -0.541754815370E+00   -0.61939E-02   -0.20706E-04    48   0.200E-01    0.724E-01
RMM:  14    -0.534151858438E+00    0.76030E-02   -0.20576E-04    48   0.192E-01    0.609E-01
RMM:  15    -0.540258730286E+00   -0.61069E-02   -0.60281E-05    48   0.960E-02    0.593E-01
RMM:  16    -0.542670280424E+00   -0.24116E-02   -0.51756E-05    48   0.863E-02    0.593E-01
RMM:  17    -0.543583449169E+00   -0.91317E-03   -0.15459E-05    50   0.423E-02    0.456E-01
RMM:  18    -0.543756781489E+00   -0.17333E-03   -0.20909E-05    48   0.630E-02    0.307E-01
RMM:  19    -0.544452762514E+00   -0.69598E-03   -0.10361E-05    47   0.380E-02    0.120E-01
RMM:  20    -0.544831384909E+00   -0.37862E-03   -0.17497E-05    48   0.591E-02    0.115E-01
RMM:  21    -0.544818967073E+00    0.12418E-04   -0.26483E-06    40   0.206E-02    0.131E-01
RMM:  22    -0.544683586866E+00    0.13538E-03   -0.32603E-06    44   0.254E-02    0.137E-01
RMM:  23    -0.544510158295E+00    0.17343E-03   -0.83071E-06    47   0.352E-02    0.238E-01
RMM:  24    -0.543069666355E+00    0.14405E-02   -0.35373E-05    48   0.815E-02    0.248E-01
RMM:  25    -0.541981569786E+00    0.10881E-02   -0.14473E-05    48   0.477E-02    0.157E-01
RMM:  26    -0.543559857632E+00   -0.15783E-02   -0.22249E-05    48   0.667E-02    0.104E-01
RMM:  27    -0.544581909389E+00   -0.10221E-02   -0.16897E-05    42   0.465E-02    0.134E-01
RMM:  28    -0.545005086860E+00   -0.42318E-03   -0.79197E-06    39   0.325E-02    0.135E-01
RMM:  29    -0.545016003298E+00   -0.10916E-04   -0.13350E-06    37   0.162E-02    0.106E-01
RMM:  30    -0.545146463783E+00   -0.13046E-03   -0.33958E-06    42   0.225E-02    0.107E-01
RMM:  31    -0.544961907524E+00    0.18456E-03   -0.19516E-06    38   0.178E-02    0.112E-01
RMM:  32    -0.544831799601E+00    0.13011E-03   -0.72319E-07    33   0.105E-02    0.106E-01
RMM:  33    -0.544902323569E+00   -0.70524E-04   -0.63865E-07    34   0.900E-03    0.964E-02
RMM:  34    -0.544981713246E+00   -0.79390E-04   -0.75664E-07    34   0.918E-03    0.780E-02
RMM:  35    -0.545092009369E+00   -0.11030E-03   -0.13490E-06    33   0.117E-02    0.548E-02
RMM:  36    -0.545235706996E+00   -0.14370E-03   -0.20674E-06    35   0.147E-02    0.366E-02
RMM:  37    -0.545388586904E+00   -0.15288E-03   -0.25079E-06    36   0.167E-02    0.338E-02
RMM:  38    -0.545412128773E+00   -0.23542E-04   -0.61657E-07    31   0.861E-03    0.218E-02
RMM:  39    -0.545396224970E+00    0.15904E-04   -0.40829E-07    32   0.758E-03    0.163E-02
RMM:  40    -0.545399783058E+00   -0.35581E-05   -0.21192E-07    30   0.509E-03    0.935E-03
RMM:  41    -0.545435631331E+00   -0.35848E-04   -0.50091E-07    31   0.748E-03    0.555E-03
RMM:  42    -0.545452842989E+00   -0.17212E-04   -0.19557E-07    32   0.515E-03    0.414E-03
RMM:  43    -0.545456198637E+00   -0.33556E-05   -0.51477E-08    29   0.258E-03    0.205E-03
RMM:  44    -0.545459076755E+00   -0.28781E-05   -0.35504E-08    29   0.203E-03    0.234E-03
RMM:  45    -0.545458506631E+00    0.57012E-06   -0.22296E-08    26   0.169E-03
   5 F= -.54581388E+00 E0= -.47242073E+00  d E =0.684729E+01  mag=     0.0000
 curvature: -13.90 expect dE=-0.452E-03 dE for cont linesearch -0.452E-03
 ZBRENT: increasing intervall
 opt :  46.0000  next Energy=    -0.546711 (dE= 0.685E+01)
 bond charge predicted
       N       E                     dE             d eps       ncg     rms          rms(c)
DAV:   1    -0.538884765394E+00    0.65743E-02   -0.50268E+00    48   0.222E+01    0.505E-01
RMM:   2    -0.194997281929E+01   -0.14111E+01   -0.89528E-02    48   0.227E+00    0.311E+01
RMM:   3    -0.499152672371E+00    0.14508E+01   -0.19683E-02    48   0.933E-01    0.246E+00
RMM:   4    -0.538012856363E+00   -0.38860E-01   -0.19622E-03    48   0.550E-01    0.130E+00
RMM:   5    -0.548359836098E+00   -0.10347E-01   -0.24313E-03    53   0.288E-01    0.539E+00
RMM:   6    -0.496076888417E+00    0.52283E-01   -0.15677E-03    48   0.381E-01    0.180E+00
RMM:   7    -0.540694711542E+00   -0.44618E-01   -0.82307E-04    48   0.270E-01    0.269E+00
RMM:   8    -0.441793268990E+00    0.98901E-01   -0.16564E-03    48   0.389E-01    0.716E-01
RMM:   9    -0.539996562298E+00   -0.98203E-01   -0.14233E-03    48   0.383E-01    0.113E+00
RMM:  10    -0.534777302292E+00    0.52193E-02   -0.45949E-04    48   0.285E-01    0.773E-01
RMM:  11    -0.542839009896E+00   -0.80617E-02   -0.18134E-04    48   0.162E-01    0.770E-01
RMM:  12    -0.527067702164E+00    0.15771E-01   -0.27128E-04    48   0.203E-01    0.555E-01
RMM:  13    -0.536399342606E+00   -0.93316E-02   -0.98968E-05    51   0.895E-02    0.734E-01
RMM:  14    -0.532573323190E+00    0.38260E-02   -0.34650E-04    48   0.245E-01    0.213E-01
RMM:  15    -0.544820212854E+00   -0.12247E-01   -0.24753E-04    48   0.189E-01    0.508E-01
RMM:  16    -0.537904075483E+00    0.69161E-02   -0.12069E-04    48   0.149E-01    0.258E-01
RMM:  17    -0.542166823551E+00   -0.42627E-02   -0.97792E-05    48   0.128E-01    0.389E-01
RMM:  18    -0.540906257230E+00    0.12606E-02   -0.56772E-05    48   0.107E-01    0.182E-01
RMM:  19    -0.543424101543E+00   -0.25178E-02   -0.36102E-05    48   0.756E-02    0.163E-01
RMM:  20    -0.545240184982E+00   -0.18161E-02   -0.55306E-05    48   0.101E-01    0.993E-02
RMM:  21    -0.545578748616E+00   -0.33856E-03   -0.97223E-06    48   0.377E-02    0.118E-01
RMM:  22    -0.545574595385E+00    0.41532E-05   -0.87409E-06    46   0.439E-02    0.108E-01
RMM:  23    -0.545599206268E+00   -0.24611E-04   -0.43600E-06    40   0.189E-02    0.197E-01
RMM:  24    -0.545011417287E+00    0.58779E-03   -0.22711E-05    46   0.565E-02    0.416E-02
RMM:  25    -0.546153736130E+00   -0.11423E-02   -0.20678E-05    48   0.596E-02    0.974E-02
RMM:  26    -0.545740634491E+00    0.41310E-03   -0.12813E-05    48   0.521E-02    0.803E-02
RMM:  27    -0.545628195348E+00    0.11244E-03   -0.42629E-06    40   0.273E-02    0.382E-02
RMM:  28    -0.546132599542E+00   -0.50440E-03   -0.12965E-05    40   0.427E-02    0.597E-02
RMM:  29    -0.545998562658E+00    0.13404E-03   -0.34789E-06    44   0.267E-02    0.317E-02
RMM:  30    -0.546128448314E+00   -0.12989E-03   -0.16898E-06    40   0.180E-02    0.162E-02
RMM:  31    -0.546271578750E+00   -0.14313E-03   -0.29108E-06    37   0.216E-02    0.157E-02
RMM:  32    -0.546287391132E+00   -0.15812E-04   -0.10400E-06    36   0.123E-02    0.126E-02
RMM:  33    -0.546308171100E+00   -0.20780E-04   -0.11691E-06    34   0.128E-02    0.135E-02
RMM:  34    -0.546330328468E+00   -0.22157E-04   -0.70588E-07    31   0.972E-03    0.207E-02
RMM:  35    -0.546340266804E+00   -0.99383E-05   -0.32983E-07    30   0.575E-03    0.247E-02
RMM:  36    -0.546351609948E+00   -0.11343E-04   -0.38581E-07    30   0.680E-03    0.277E-02
RMM:  37    -0.546346359604E+00    0.52503E-05   -0.20942E-07    30   0.529E-03    0.186E-02
RMM:  38    -0.546354947198E+00   -0.85876E-05   -0.16042E-07    30   0.419E-03    0.122E-02
RMM:  39    -0.546356576006E+00   -0.16288E-05   -0.86468E-08    28   0.314E-03    0.239E-03
RMM:  40    -0.546357659874E+00   -0.10839E-05   -0.54473E-08    28   0.220E-03    0.156E-03
RMM:  41    -0.546358178419E+00   -0.51854E-06   -0.34497E-08    28   0.200E-03
   6 F= -.54673174E+00 E0= -.47338768E+00  d E =0.684638E+01  mag=     0.0000
 curvature: -27.59 expect dE=-0.975E-03 dE for cont linesearch -0.975E-03
 ZBRENT: increasing intervall
 opt :  94.0000  next Energy=    -0.548668 (dE= 0.684E+01)
 bond charge predicted
       N       E                     dE             d eps       ncg     rms          rms(c)
DAV:   1    -0.518026835078E+00    0.28331E-01   -0.20146E+01    48   0.445E+01    0.114E+00
RMM:   2    -0.388931877175E+01   -0.33713E+01   -0.37553E-01    48   0.472E+00    0.313E+01
RMM:   3    -0.531847424224E+00    0.33575E+01   -0.72196E-02    48   0.167E+00    0.101E+01
RMM:   4    -0.505701655559E+00    0.26146E-01   -0.75123E-03    50   0.102E+00    0.254E+00
RMM:   5    -0.568209519384E+00   -0.62508E-01   -0.62790E-03    53   0.451E-01    0.755E+00
RMM:   6    -0.449127281631E+00    0.11908E+00   -0.41921E-03    50   0.559E-01    0.488E+00
RMM:   7    -0.505639186658E+00   -0.56512E-01   -0.11090E-03    49   0.365E-01    0.502E+00
RMM:   8    -0.560602127031E+00   -0.54963E-01   -0.25820E-03    52   0.428E-01    0.938E+00
RMM:   9    -0.427449471065E+00    0.13315E+00   -0.40244E-03    48   0.782E-01    0.136E+01
RMM:  10    -0.518195606411E+00   -0.90746E-01   -0.20899E-03    48   0.505E-01    0.773E+00
RMM:  11    -0.450798799576E+00    0.67397E-01   -0.11391E-03    48   0.439E-01    0.364E+00
RMM:  12    -0.497334116045E+00   -0.46535E-01   -0.95626E-04    49   0.334E-01    0.386E+00
RMM:  13    -0.481847053028E+00    0.15487E-01   -0.15252E-03    48   0.526E-01    0.326E+00
RMM:  14    -0.527040416655E+00   -0.45193E-01   -0.85826E-04    48   0.323E-01    0.411E+00
RMM:  15    -0.510205818584E+00    0.16835E-01   -0.10128E-03    48   0.379E-01    0.428E+00
RMM:  16    -0.523129758115E+00   -0.12924E-01   -0.25045E-04    48   0.170E-01    0.486E+00
RMM:  17    -0.538598234718E+00   -0.15468E-01   -0.47842E-04    48   0.273E-01    0.485E+00
RMM:  18    -0.536041012735E+00    0.25572E-02   -0.19049E-04    48   0.145E-01    0.542E+00
RMM:  19    -0.547731008496E+00   -0.11690E-01   -0.27306E-04    48   0.232E-01    0.582E+00
RMM:  20    -0.539633481317E+00    0.80975E-02   -0.53188E-04    54   0.170E-01    0.333E+00
RMM:  21    -0.536682450352E+00    0.29510E-02   -0.36128E-04    48   0.261E-01    0.160E+00
RMM:  22    -0.541428732899E+00   -0.47463E-02   -0.77167E-04    51   0.270E-01    0.776E+00
RMM:  23    -0.542275562600E+00   -0.84683E-03   -0.94989E-04    48   0.336E-01    0.190E+00
RMM:  24    -0.520622448484E+00    0.21653E-01   -0.75338E-04    48   0.359E-01    0.303E+00
RMM:  25    -0.544580546631E+00   -0.23958E-01   -0.31700E-04    48   0.212E-01    0.387E+00
RMM:  26    -0.547247238152E+00   -0.26667E-02   -0.17350E-04    48   0.176E-01    0.319E+00
RMM:  27    -0.543166929552E+00    0.40803E-02   -0.14690E-04    48   0.122E-01    0.218E+00
RMM:  28    -0.550065442251E+00   -0.68985E-02   -0.19013E-04    48   0.162E-01    0.352E+00
RMM:  29    -0.542927015617E+00    0.71384E-02   -0.18175E-04    48   0.196E-01    0.442E+00
RMM:  30    -0.545399461239E+00   -0.24724E-02   -0.21977E-04    48   0.127E-01    0.334E+00
RMM:  31    -0.547298002944E+00   -0.18985E-02   -0.15317E-04    48   0.159E-01    0.123E+00
RMM:  32    -0.547937274743E+00   -0.63927E-03   -0.36996E-05    48   0.881E-02    0.240E-01
RMM:  33    -0.547892306322E+00    0.44968E-04   -0.93523E-06    47   0.439E-02    0.208E-01
RMM:  34    -0.548007354578E+00   -0.11505E-03   -0.18098E-06    36   0.168E-02    0.135E-01
RMM:  35    -0.548183988586E+00   -0.17663E-03   -0.36612E-06    40   0.240E-02    0.376E-02
RMM:  36    -0.548192988787E+00   -0.90002E-05   -0.10816E-06    34   0.129E-02    0.689E-03
RMM:  37    -0.548217161199E+00   -0.24172E-04   -0.61882E-07    32   0.801E-03    0.795E-03
RMM:  38    -0.548222459194E+00   -0.52980E-05   -0.69845E-07    32   0.802E-03    0.279E-02
RMM:  39    -0.548234969662E+00   -0.12510E-04   -0.65212E-07    32   0.735E-03    0.299E-02
RMM:  40    -0.548237740103E+00   -0.27704E-05   -0.51728E-07    31   0.635E-03    0.240E-02
RMM:  41    -0.548243864840E+00   -0.61247E-05   -0.53803E-07    32   0.683E-03    0.958E-04
RMM:  42    -0.548248971793E+00   -0.51070E-05   -0.28416E-07    28   0.507E-03    0.708E-03
RMM:  43    -0.548252237269E+00   -0.32655E-05   -0.27899E-07    29   0.382E-03    0.371E-03
RMM:  44    -0.548255375867E+00   -0.31386E-05   -0.25424E-07    28   0.435E-03    0.724E-03
RMM:  45    -0.548256639695E+00   -0.12638E-05   -0.20168E-07    28   0.377E-03    0.620E-03
RMM:  46    -0.548257290056E+00   -0.65036E-06   -0.12669E-07    28   0.347E-03
   7 F= -.54867062E+00 E0= -.47547600E+00  d E =0.684444E+01  mag=     0.0000
 curvature: -54.81 expect dE=-0.230E-02 dE for cont linesearch -0.230E-02
 ZBRENT: increasing intervall
 opt : 190.0000  next Energy=    -0.553061 (dE= 0.684E+01)
 bond charge predicted
       N       E                     dE             d eps       ncg     rms          rms(c)
DAV:   1    -0.423518818264E+00    0.12474E+00   -0.81105E+01    48   0.897E+01    0.263E+00
RMM:   2    -0.708489443225E+01   -0.66614E+01   -0.16193E+00    48   0.990E+00    0.317E+01
RMM:   3    -0.673974776242E+00    0.64109E+01   -0.28726E-01    50   0.318E+00    0.179E+01
RMM:   4    -0.410839830230E+00    0.26313E+00   -0.31581E-02    48   0.203E+00    0.495E+00
RMM:   5    -0.584245395067E+00   -0.17341E+00   -0.17621E-02    50   0.799E-01    0.112E+01
RMM:   6    -0.369509481741E+00    0.21474E+00   -0.11041E-02    50   0.829E-01    0.857E+00
RMM:   7    -0.395263203773E-01    0.32998E+00   -0.73663E-03    48   0.829E-01    0.711E+00
RMM:   8    -0.471095704832E+00   -0.43157E+00   -0.66605E-03    48   0.791E-01    0.589E+00
RMM:   9    -0.392576720175E+00    0.78519E-01   -0.45582E-03    48   0.680E-01    0.120E+01
RMM:  10    -0.690567453783E+00   -0.29799E+00   -0.82725E-03    49   0.784E-01    0.213E+01
RMM:  11    -0.774056518659E+00   -0.83489E-01   -0.25526E-03    48   0.555E-01    0.278E+01
RMM:  12    -0.133949341806E+01   -0.56544E+00   -0.65785E-02    54   0.176E+00    0.137E+01
RMM:  13    -0.135085284006E+01   -0.11359E-01   -0.39885E-03    48   0.811E-01    0.136E+01
RMM:  14    -0.909876567463E+00    0.44098E+00   -0.34844E-02    54   0.134E+00    0.132E+01
RMM:  15    -0.689266208026E+00    0.22061E+00   -0.38185E-03    53   0.274E-01    0.127E+01
RMM:  16    -0.584583325257E+00    0.10468E+00   -0.34525E-04    55   0.147E-01    0.969E+00
RMM:  17    -0.540568712397E+00    0.44015E-01   -0.32011E-04    51   0.170E-01    0.379E+00
RMM:  18    -0.592276536546E+00   -0.51708E-01   -0.97103E-04    48   0.316E-01    0.102E+01
RMM:  19    -0.600194676303E+00   -0.79181E-02   -0.31122E-04    48   0.219E-01    0.106E+01
RMM:  20    -0.550754690692E+00    0.49440E-01   -0.36443E-04    48   0.153E-01    0.660E+00
RMM:  21    -0.556421084574E+00   -0.56664E-02   -0.11298E-04    48   0.150E-01    0.658E+00
RMM:  22    -0.553042106008E+00    0.33790E-02   -0.24023E-05    49   0.602E-02    0.598E+00
RMM:  23    -0.542801726310E+00    0.10240E-01   -0.48702E-05    50   0.673E-02    0.360E+00
RMM:  24    -0.539595957450E+00    0.32058E-02   -0.74845E-05    48   0.113E-01    0.291E+00
RMM:  25    -0.536901174491E+00    0.26948E-02   -0.30539E-05    48   0.650E-02    0.246E+00
RMM:  26    -0.534819368889E+00    0.20818E-02   -0.90859E-05    48   0.979E-02    0.125E+00
RMM:  27    -0.529378324518E+00    0.54410E-02   -0.10758E-04    48   0.133E-01    0.124E+00
RMM:  28    -0.527865458483E+00    0.15129E-02   -0.12581E-05    48   0.411E-02    0.149E+00
RMM:  29    -0.526861708188E+00    0.10038E-02   -0.32093E-05    48   0.521E-02    0.196E+00
RMM:  30    -0.524220417339E+00    0.26413E-02   -0.10344E-04    48   0.130E-01    0.149E+00
RMM:  31    -0.528869176084E+00   -0.46488E-02   -0.89988E-05    48   0.112E-01    0.205E+00
RMM:  32    -0.527228755163E+00    0.16404E-02   -0.16290E-04    48   0.165E-01    0.184E+00
RMM:  33    -0.514190164967E+00    0.13039E-01   -0.30430E-04    48   0.182E-01    0.206E+00
RMM:  34    -0.543121708419E+00   -0.28932E-01   -0.59031E-04    48   0.230E-01    0.107E+01
RMM:  35    -0.561090118975E+00   -0.17968E-01   -0.67314E-04    48   0.350E-01    0.100E+01
RMM:  36    -0.584985241596E+00   -0.23895E-01   -0.28609E-04    48   0.175E-01    0.141E+01
RMM:  37    -0.526202067118E+00    0.58783E-01   -0.57310E-04    48   0.253E-01    0.173E+00
RMM:  38    -0.555005731887E+00   -0.28804E-01   -0.74794E-04    48   0.328E-01    0.529E+00
RMM:  39    -0.500459308498E+00    0.54546E-01   -0.12022E-03    48   0.414E-01    0.220E+00
RMM:  40    -0.467911311104E+00    0.32548E-01   -0.76516E-04    48   0.261E-01    0.880E+00
RMM:  41    -0.516237299937E+00   -0.48326E-01   -0.89746E-04    48   0.310E-01    0.222E+00
RMM:  42    -0.555405044499E+00   -0.39168E-01   -0.58597E-04    48   0.248E-01    0.720E+00
RMM:  43    -0.546325814998E+00    0.90792E-02   -0.51446E-04    48   0.282E-01    0.322E+00
RMM:  44    -0.539061008342E+00    0.72648E-02   -0.33238E-04    48   0.241E-01    0.211E+00
RMM:  45    -0.541703004604E+00   -0.26420E-02   -0.20536E-04    48   0.183E-01    0.296E+00
RMM:  46    -0.547092638091E+00   -0.53896E-02   -0.21354E-04    48   0.197E-01    0.152E+00
RMM:  47    -0.552068218447E+00   -0.49756E-02   -0.81647E-05    51   0.931E-02    0.398E+00
RMM:  48    -0.547562043271E+00    0.45062E-02   -0.13872E-04    48   0.164E-01    0.111E+00
RMM:  49    -0.550391388353E+00   -0.28293E-02   -0.35631E-05    48   0.805E-02    0.293E+00
RMM:  50    -0.546698310040E+00    0.36931E-02   -0.38796E-05    48   0.761E-02    0.106E+00
RMM:  51    -0.548895271278E+00   -0.21970E-02   -0.32353E-05    48   0.717E-02    0.257E+00
RMM:  52    -0.550156987924E+00   -0.12617E-02   -0.10315E-04    49   0.781E-02    0.358E+00
RMM:  53    -0.575758724975E+00   -0.25602E-01   -0.24152E-04    48   0.182E-01    0.804E+00
RMM:  54    -0.548672083022E+00    0.27087E-01   -0.12679E-04    48   0.150E-01    0.387E+00
RMM:  55    -0.553277828553E+00   -0.46057E-02   -0.40152E-05    48   0.890E-02    0.422E+00
RMM:  56    -0.555602627813E+00   -0.23248E-02   -0.25659E-05    48   0.692E-02    0.470E+00
RMM:  57    -0.547921581958E+00    0.76810E-02   -0.86636E-05    52   0.714E-02    0.169E+00
RMM:  58    -0.549132805910E+00   -0.12112E-02   -0.66142E-05    48   0.114E-01    0.171E+00
RMM:  59    -0.547185499928E+00    0.19473E-02   -0.48571E-05    48   0.873E-02    0.106E+00
RMM:  60    -0.542394429560E+00    0.47911E-02   -0.17924E-04    48   0.169E-01    0.120E+00
RMM:  61    -0.535950870671E+00    0.64436E-02   -0.94381E-05    48   0.107E-01    0.116E+00
RMM:  62    -0.532775065388E+00    0.31758E-02   -0.50224E-05    49   0.688E-02    0.169E+00
RMM:  63    -0.527264203367E+00    0.55109E-02   -0.12522E-04    48   0.126E-01    0.190E+00
RMM:  64    -0.522043029233E+00    0.52212E-02   -0.37048E-05    48   0.644E-02    0.185E+00
RMM:  65    -0.519129180341E+00    0.29138E-02   -0.21236E-05    47   0.491E-02    0.198E+00
RMM:  66    -0.521802014373E+00   -0.26728E-02   -0.19598E-05    46   0.448E-02    0.226E+00
RMM:  67    -0.522589588245E+00   -0.78757E-03   -0.38515E-05    48   0.606E-02    0.245E+00
RMM:  68    -0.528954374463E+00   -0.63648E-02   -0.80707E-05    48   0.998E-02    0.182E+00
RMM:  69    -0.521681518235E+00    0.72729E-02   -0.95075E-05    48   0.101E-01    0.198E+00
RMM:  70    -0.525515459386E+00   -0.38339E-02   -0.19367E-05    48   0.542E-02    0.148E+00
RMM:  71    -0.529085400049E+00   -0.35699E-02   -0.30682E-05    48   0.627E-02    0.997E-01
RMM:  72    -0.536921792741E+00   -0.78364E-02   -0.73332E-05    48   0.106E-01    0.361E-01
RMM:  73    -0.545602479007E+00   -0.86807E-02   -0.15430E-04    48   0.144E-01    0.379E-01
RMM:  74    -0.549073106600E+00   -0.34706E-02   -0.77639E-05    48   0.106E-01    0.341E-01
RMM:  75    -0.551256002534E+00   -0.21829E-02   -0.48133E-05    48   0.877E-02    0.323E-01
RMM:  76    -0.551716612709E+00   -0.46061E-03   -0.12542E-05    46   0.452E-02    0.249E-01
RMM:  77    -0.551833117326E+00   -0.11650E-03   -0.11256E-05    48   0.402E-02    0.320E-01
RMM:  78    -0.550615580986E+00    0.12175E-02   -0.30465E-05    48   0.653E-02    0.267E-01
RMM:  79    -0.551818005969E+00   -0.12024E-02   -0.28791E-05    48   0.635E-02    0.278E-01
RMM:  80    -0.552043774698E+00   -0.22577E-03   -0.27041E-05    46   0.698E-02    0.239E-01
RMM:  81    -0.551636716742E+00    0.40706E-03   -0.71380E-06    40   0.335E-02    0.140E-01
RMM:  82    -0.551953465804E+00   -0.31675E-03   -0.34481E-06    38   0.223E-02    0.853E-02
RMM:  83    -0.552181451092E+00   -0.22799E-03   -0.47494E-06    39   0.254E-02    0.124E-01
RMM:  84    -0.552146255760E+00    0.35195E-04   -0.25046E-06    37   0.175E-02    0.151E-01
RMM:  85    -0.552098909340E+00    0.47346E-04   -0.16884E-06    37   0.138E-02    0.162E-01
RMM:  86    -0.552110181581E+00   -0.11272E-04   -0.65461E-07    32   0.938E-03    0.120E-01
RMM:  87    -0.552276799655E+00   -0.16662E-03   -0.21041E-06    38   0.164E-02    0.759E-02
RMM:  88    -0.552456191086E+00   -0.17939E-03   -0.20398E-06    38   0.160E-02    0.501E-02
RMM:  89    -0.552517914718E+00   -0.61724E-04   -0.16356E-06    35   0.131E-02    0.264E-02
RMM:  90    -0.552544858545E+00   -0.26944E-04   -0.70079E-07    34   0.913E-03    0.161E-02
RMM:  91    -0.552558990152E+00   -0.14132E-04   -0.34854E-07    32   0.706E-03    0.671E-03
RMM:  92    -0.552587529157E+00   -0.28539E-04   -0.42653E-07    32   0.751E-03    0.446E-03
RMM:  93    -0.552599696393E+00   -0.12167E-04   -0.25387E-07    31   0.604E-03    0.575E-03
RMM:  94    -0.552601162969E+00   -0.14666E-05   -0.95993E-08    31   0.380E-03    0.571E-03
RMM:  95    -0.552599975736E+00    0.11872E-05   -0.41296E-08    29   0.250E-03    0.603E-03
RMM:  96    -0.552599667160E+00    0.30858E-06   -0.13067E-08    22   0.144E-03
   8 F= -.55310838E+00 E0= -.48037115E+00  d E =0.684000E+01  mag=    -0.0000
 curvature: ****** expect dE=-0.635E-02 dE for cont linesearch -0.634E-02
 ZBRENT: increasing intervall
 opt : 382.0000  next Energy=    -0.564492 (dE= 0.683E+01)
 bond charge predicted
       N       E                     dE             d eps       ncg     rms          rms(c)
DAV:   1    -0.196293139561E+00    0.35631E+00   -0.33000E+02    72   0.181E+02    0.470E+00
RMM:   2    -0.182451436505E+02   -0.18049E+02   -0.66728E+00    48   0.164E+01    0.334E+01
RMM:   3    -0.297003909332E+01    0.15275E+02   -0.82047E-01    48   0.532E+00    0.313E+01
RMM:   4    -0.112800099839E+01    0.18420E+01   -0.73991E-01    52   0.692E+00    0.137E+01
RMM:   5    -0.123233554314E+01   -0.10433E+00   -0.56520E-02    54   0.127E+00    0.137E+01
RMM:   6    -0.111948219241E+01    0.11285E+00   -0.13035E-02    48   0.996E-01    0.136E+01
RMM:   7    -0.631141562857E+00    0.48834E+00   -0.10061E-01    54   0.218E+00    0.112E+01
RMM:   8    -0.581731330139E+00    0.49410E-01   -0.28724E-03    60   0.318E-01    0.802E+00
RMM:   9    -0.586293215302E+00   -0.45619E-02   -0.22315E-04    59   0.138E-01    0.791E+00
RMM:  10    -0.572094975935E+00    0.14198E-01   -0.96838E-05    48   0.103E-01    0.667E+00
RMM:  11    -0.571687272842E+00    0.40770E-03   -0.66418E-05    49   0.807E-02    0.670E+00
RMM:  12    -0.550341369221E+00    0.21346E-01   -0.29236E-04    48   0.152E-01    0.414E+00
RMM:  13    -0.551343009545E+00   -0.10016E-02   -0.25715E-04    50   0.153E-01    0.283E+00
RMM:  14    -0.531515180733E+00    0.19828E-01   -0.70743E-04    48   0.286E-01    0.214E+00
RMM:  15    -0.556913020553E+00   -0.25398E-01   -0.65950E-04    50   0.251E-01    0.346E+00
RMM:  16    -0.554249034615E+00    0.26640E-02   -0.52223E-04    48   0.258E-01    0.544E+00
RMM:  17    -0.574970916557E+00   -0.20722E-01   -0.93082E-04    49   0.271E-01    0.752E+00
RMM:  18    -0.555745766542E+00    0.19225E-01   -0.11467E-03    48   0.427E-01    0.884E+00
RMM:  19    -0.565767799584E+00   -0.10022E-01   -0.86227E-04    49   0.286E-01    0.731E+00
RMM:  20    -0.553203638826E+00    0.12564E-01   -0.61794E-04    48   0.335E-01    0.785E+00
RMM:  21    -0.536197302789E+00    0.17006E-01   -0.87149E-04    50   0.268E-01    0.138E+00
RMM:  22    -0.535496348123E+00    0.70095E-03   -0.53115E-04    48   0.277E-01    0.148E+00
RMM:  23    -0.548142347566E+00   -0.12646E-01   -0.46263E-04    54   0.167E-01    0.578E+00
RMM:  24    -0.560995370083E+00   -0.12853E-01   -0.34850E-04    48   0.219E-01    0.574E+00
RMM:  25    -0.778649637588E+00   -0.21765E+00   -0.55511E-03    54   0.450E-01    0.130E+01
RMM:  26    -0.884846663636E+00   -0.10620E+00   -0.19445E-03    52   0.331E-01    0.131E+01
RMM:  27    -0.117426802398E+01   -0.28942E+00   -0.71670E-03    54   0.536E-01    0.133E+01
RMM:  28    -0.116367463490E+01    0.10593E-01   -0.41045E-04    48   0.166E-01    0.133E+01
RMM:  29    -0.975097791056E+00    0.18858E+00   -0.13318E-03    54   0.246E-01    0.132E+01
RMM:  30    -0.814968463148E+00    0.16013E+00   -0.83107E-04    54   0.140E-01    0.131E+01
RMM:  31    -0.967152038404E+00   -0.15218E+00   -0.28919E-04    55   0.102E-01    0.132E+01
RMM:  32    -0.107667545391E+01   -0.10952E+00   -0.17441E-04    51   0.614E-02    0.132E+01
RMM:  33    -0.760304923770E+00    0.31637E+00   -0.24284E-02    48   0.733E-01    0.242E+01
RMM:  34    -0.173481465134E+01   -0.97451E+00   -0.53817E-02    48   0.135E+00    0.135E+01
RMM:  35    -0.174217221529E+01   -0.73576E-02   -0.11495E-01    53   0.170E+00    0.309E+01
RMM:  36    -0.115137235905E+01    0.59080E+00   -0.21909E-02    48   0.134E+00    0.133E+01
RMM:  37    -0.134890350743E+01   -0.19753E+00   -0.31063E-02    52   0.113E+00    0.308E+01
RMM:  38    -0.686826784199E+00    0.66208E+00   -0.44019E-03    48   0.545E-01    0.126E+01
RMM:  39    -0.125285876816E+01   -0.56603E+00   -0.20505E-02    51   0.732E-01    0.307E+01
RMM:  40    -0.921455269030E+00    0.33140E+00   -0.14036E-02    55   0.761E-01    0.132E+01
RMM:  41    -0.129231802312E+01   -0.37086E+00   -0.25874E-02    50   0.801E-01    0.307E+01
RMM:  42    -0.930831551405E+00    0.36149E+00   -0.11330E-02    52   0.697E-01    0.132E+01
RMM:  43    -0.667111086309E+00    0.26372E+00   -0.14743E-02    51   0.744E-01    0.182E+01
RMM:  44    -0.119603190435E+01   -0.52892E+00   -0.18947E-02    53   0.855E-01    0.132E+01
RMM:  45    -0.880462725623E+00    0.31557E+00   -0.43717E-03    48   0.682E-01    0.131E+01
RMM:  46    -0.577991954361E+00    0.30247E+00   -0.15117E-03    49   0.305E-01    0.820E+00
RMM:  47    -0.841348279286E+00   -0.26336E+00   -0.10544E-03    48   0.258E-01    0.131E+01
RMM:  48    -0.556834367956E+00    0.28451E+00   -0.18248E-03    54   0.284E-01    0.492E+00
RMM:  49    -0.823419215623E+00   -0.26658E+00   -0.18512E-03    52   0.310E-01    0.131E+01
RMM:  50    -0.628741051482E+00    0.19468E+00   -0.68683E-04    51   0.226E-01    0.105E+01
RMM:  51    -0.641548703245E+00   -0.12808E-01   -0.70015E-05    48   0.113E-01    0.111E+01
RMM:  52    -0.759143138854E+00   -0.11759E+00   -0.28562E-04    49   0.829E-02    0.129E+01
RMM:  53    -0.563679506214E+00    0.19546E+00   -0.97860E-04    49   0.182E-01    0.396E+00
RMM:  54    -0.133913643169E+01   -0.77546E+00   -0.12379E-02    54   0.649E-01    0.307E+01
RMM:  55    -0.638167562253E+00    0.70097E+00   -0.80413E-03    51   0.682E-01    0.156E+01
RMM:  56    -0.900530768141E+00   -0.26236E+00   -0.34506E-03    48   0.639E-01    0.255E+01
RMM:  57    -0.120091638037E+01   -0.30039E+00   -0.21423E-03    52   0.378E-01    0.302E+01
RMM:  58    -0.267762262762E+01   -0.14767E+01   -0.18853E-02    52   0.777E-01    0.310E+01
RMM:  59    -0.563149412668E+00    0.21145E+01   -0.15056E-02    50   0.628E-01    0.626E+00
RMM:  60    -0.773855152394E+00   -0.21071E+00   -0.13978E-02    54   0.937E-01    0.126E+01
RMM:  61    -0.693607580531E+00    0.80248E-01   -0.54672E-03    48   0.581E-01    0.840E+00
RMM:  62    -0.556150975098E+00    0.13746E+00   -0.59223E-03    48   0.842E-01    0.173E+01
RMM:  63    -0.242082633820E+01   -0.18647E+01   -0.43053E-02    56   0.112E+00    0.311E+01
RMM:  64    -0.837305113476E+00    0.15835E+01   -0.24590E-02    48   0.107E+00    0.127E+01
RMM:  65    -0.724090919822E+00    0.11321E+00   -0.52670E-03    48   0.809E-01    0.121E+01
RMM:  66    -0.609820727356E+00    0.11427E+00   -0.99529E-03    48   0.897E-01    0.226E+01
RMM:  67    -0.151595215747E+01   -0.90613E+00   -0.95473E-03    48   0.695E-01    0.309E+01
RMM:  68    -0.809571515563E+00    0.70638E+00   -0.13268E-02    48   0.778E-01    0.129E+01
RMM:  69    -0.732904344155E+00    0.76667E-01   -0.13050E-03    48   0.542E-01    0.110E+01
RMM:  70    -0.642165916098E+00    0.90738E-01   -0.38387E-04    48   0.249E-01    0.779E+00
RMM:  71    -0.558875349113E+00    0.83291E-01   -0.99563E-04    48   0.368E-01    0.688E+00
RMM:  72    -0.563629779047E+00   -0.47544E-02   -0.85145E-04    48   0.262E-01    0.104E+01
RMM:  73    -0.973823957700E+00   -0.41019E+00   -0.30883E-03    50   0.460E-01    0.132E+01
RMM:  74    -0.615750493008E+00    0.35807E+00   -0.37102E-03    48   0.422E-01    0.653E+00
RMM:  75    -0.582049876329E+00    0.33701E-01   -0.21279E-03    48   0.525E-01    0.108E+01
RMM:  76    -0.622716096415E+00   -0.40666E-01   -0.15161E-03    48   0.396E-01    0.913E+00
RMM:  77    -0.561235379847E+00    0.61481E-01   -0.49925E-04    49   0.195E-01    0.549E+00
RMM:  78    -0.439658505250E+00    0.12158E+00   -0.21297E-03    48   0.474E-01    0.549E+00
RMM:  79    -0.380809617251E+00    0.58849E-01   -0.62598E-04    48   0.267E-01    0.548E+00
RMM:  80    -0.355831983477E+00    0.24978E-01   -0.15645E-04    49   0.138E-01    0.552E+00
RMM:  81    -0.362959632347E+00   -0.71276E-02   -0.94328E-05    53   0.691E-02    0.642E+00
RMM:  82    -0.459030529509E+00   -0.96071E-01   -0.69147E-04    48   0.261E-01    0.747E+00
RMM:  83    -0.507290026157E+00   -0.48259E-01   -0.27267E-04    48   0.188E-01    0.794E+00
RMM:  84    -0.520961073197E+00   -0.13671E-01   -0.15109E-04    48   0.140E-01    0.726E+00
RMM:  85    -0.509435297338E+00    0.11526E-01   -0.81111E-05    48   0.902E-02    0.700E+00
RMM:  86    -0.498375030586E+00    0.11060E-01   -0.28382E-05    48   0.615E-02    0.699E+00
RMM:  87    -0.487047995400E+00    0.11327E-01   -0.29986E-04    49   0.129E-01    0.584E+00
RMM:  88    -0.410301877926E+00    0.76746E-01   -0.89625E-04    48   0.354E-01    0.680E+00
RMM:  89    -0.318082077903E+00    0.92220E-01   -0.97322E-04    48   0.318E-01    0.695E+00
RMM:  90    -0.284624995825E+00    0.33457E-01   -0.21603E-04    48   0.161E-01    0.748E+00
RMM:  91    -0.260826893556E+00    0.23798E-01   -0.64733E-05    48   0.930E-02    0.736E+00
RMM:  92    -0.255653823486E+00    0.51731E-02   -0.70977E-05    48   0.667E-02    0.782E+00
RMM:  93    -0.248851306549E+00    0.68025E-02   -0.12216E-04    48   0.119E-01    0.687E+00
RMM:  94    -0.288109784239E+00   -0.39258E-01   -0.13058E-04    48   0.124E-01    0.766E+00
RMM:  95    -0.274348073230E+00    0.13762E-01   -0.64507E-05    48   0.964E-02    0.759E+00
RMM:  96    -0.268113419854E+00    0.62347E-02   -0.12662E-04    49   0.844E-02    0.699E+00
RMM:  97    -0.283567886971E+00   -0.15454E-01   -0.19127E-04    48   0.139E-01    0.686E+00
RMM:  98    -0.293341584221E+00   -0.97737E-02   -0.78493E-05    48   0.112E-01    0.707E+00
RMM:  99    -0.288014348761E+00    0.53272E-02   -0.20128E-05    51   0.395E-02    0.762E+00
RMM: 100    -0.263440324856E+00    0.24574E-01   -0.47784E-05    48   0.776E-02
   9 F= -.26422871E+00 E0= -.21608228E+00  d E =0.712888E+01  mag=     0.0035
 curvature: ****** expect dE=-0.576E-02 dE for cont linesearch -0.574E-02
 ZBRENT: increasing intervall
 opt : 766.0000  next Energy=    -0.272421 (dE= 0.712E+01)
 bond charge predicted
       N       E                     dE             d eps       ncg     rms          rms(c)
DAV:   1     0.493863076659E+01    0.52266E+01   -0.10490E+03    48   0.306E+02    0.138E+01
RMM:   2    -0.568893019360E+01   -0.10628E+02   -0.84703E+01    48   0.632E+01    0.166E+01
RMM:   3    -0.110906878863E+02   -0.54018E+01   -0.91101E+00    51   0.243E+01    0.325E+01
RMM:   4    -0.250274184127E+01    0.85879E+01   -0.17776E+00    49   0.123E+01    0.157E+01
RMM:   5    -0.118265244021E+01    0.13201E+01   -0.14563E-01    49   0.381E+00    0.120E+01
RMM:   6    -0.115788746253E+01    0.24765E-01   -0.22714E-02    54   0.799E-01    0.101E+01
RMM:   7    -0.141915326288E+01   -0.26127E+00   -0.27466E-02    50   0.124E+00    0.208E+01
RMM:   8    -0.105372657352E+01    0.36543E+00   -0.58187E-03    48   0.918E-01    0.193E+01
RMM:   9    -0.341346847025E+01   -0.23597E+01   -0.58392E-02    51   0.129E+00    0.313E+01
RMM:  10    -0.852542284130E+00    0.25609E+01   -0.99704E-02    49   0.195E+00    0.177E+01
RMM:  11    -0.694816400360E+00    0.15773E+00   -0.82853E-03    48   0.111E+00    0.178E+01
RMM:  12    -0.573281290887E+00    0.12154E+00   -0.26483E-03    56   0.330E-01    0.143E+01
RMM:  13    -0.814219448584E+00   -0.24094E+00   -0.29384E-03    52   0.405E-01    0.205E+01
RMM:  14    -0.878167658528E+00   -0.63948E-01   -0.14298E-03    48   0.370E-01    0.208E+01
RMM:  15    -0.867936698442E+00    0.10231E-01   -0.44349E-04    50   0.191E-01    0.208E+01
RMM:  16    -0.873013503790E+00   -0.50768E-02   -0.11993E-04    48   0.124E-01    0.208E+01
RMM:  17    -0.868619150526E+00    0.43944E-02   -0.46319E-04    48   0.160E-01    0.208E+01
RMM:  18    -0.874561856022E+00   -0.59427E-02   -0.63654E-04    48   0.241E-01    0.209E+01
RMM:  19    -0.892984848850E+00   -0.18423E-01   -0.13259E-03    48   0.302E-01    0.207E+01
RMM:  20    -0.100756504147E+01   -0.11458E+00   -0.12886E-03    50   0.293E-01    0.218E+01
RMM:  21    -0.128025257874E+01   -0.27269E+00   -0.33258E-03    52   0.374E-01    0.243E+01
RMM:  22    -0.137009622844E+01   -0.89844E-01   -0.53339E-04    48   0.281E-01    0.246E+01
RMM:  23    -0.136951161043E+01    0.58462E-03   -0.66185E-04    48   0.220E-01    0.246E+01
RMM:  24    -0.131665645184E+01    0.52855E-01   -0.22934E-04    48   0.149E-01    0.241E+01
RMM:  25    -0.130764964906E+01    0.90068E-02   -0.51259E-05    50   0.723E-02    0.241E+01
RMM:  26    -0.122747940877E+01    0.80170E-01   -0.12140E-03    48   0.240E-01    0.238E+01
RMM:  27    -0.113279252265E+01    0.94687E-01   -0.78941E-04    52   0.193E-01    0.227E+01
RMM:  28    -0.104314895829E+01    0.89644E-01   -0.33227E-03    49   0.350E-01    0.216E+01
RMM:  29    -0.100885957303E+01    0.34289E-01   -0.39030E-04    48   0.231E-01    0.215E+01
RMM:  30    -0.111722950219E+01   -0.10837E+00   -0.21412E-03    51   0.281E-01    0.225E+01
RMM:  31    -0.103703681247E+01    0.80193E-01   -0.21270E-03    48   0.336E-01    0.215E+01
RMM:  32    -0.990090867837E+00    0.46946E-01   -0.11855E-03    49   0.283E-01    0.215E+01
RMM:  33    -0.108226884945E+01   -0.92178E-01   -0.10350E-02    49   0.668E-01    0.216E+01
RMM:  34    -0.112694952512E+01   -0.44681E-01   -0.14619E-03    53   0.237E-01    0.218E+01
RMM:  35    -0.113371259553E+01   -0.67631E-02   -0.15115E-03    48   0.331E-01    0.217E+01
RMM:  36    -0.111445891301E+01    0.19254E-01   -0.10336E-03    49   0.288E-01    0.214E+01
RMM:  37    -0.951070551415E+00    0.16339E+00   -0.26456E-03    49   0.397E-01    0.197E+01
RMM:  38    -0.952974122792E+00   -0.19036E-02   -0.30389E-04    48   0.204E-01    0.196E+01
RMM:  39    -0.856641853525E+00    0.96332E-01   -0.14075E-03    52   0.240E-01    0.184E+01
RMM:  40    -0.923990131102E+00   -0.67348E-01   -0.59593E-04    48   0.250E-01    0.188E+01
RMM:  41    -0.934383365543E+00   -0.10393E-01   -0.71897E-05    49   0.960E-02    0.190E+01
RMM:  42    -0.882886102496E+00    0.51497E-01   -0.23141E-03    49   0.388E-01    0.168E+01
RMM:  43    -0.895293560012E+00   -0.12407E-01   -0.12344E-03    48   0.395E-01    0.166E+01
RMM:  44    -0.882657858742E+00    0.12636E-01   -0.16944E-04    49   0.138E-01    0.166E+01
RMM:  45    -0.873406046935E+00    0.92518E-02   -0.88848E-04    51   0.230E-01    0.157E+01
RMM:  46    -0.941515481995E+00   -0.68109E-01   -0.13336E-03    48   0.346E-01    0.159E+01
RMM:  47    -0.138304789693E+01   -0.44153E+00   -0.13660E-01    48   0.244E+00    0.159E+01
RMM:  48    -0.153065398201E+01   -0.14761E+00   -0.23174E-02    48   0.152E+00    0.158E+01
RMM:  49    -0.175130846847E+01   -0.22065E+00   -0.59470E-02    49   0.159E+00    0.187E+01
RMM:  50    -0.160943062970E+01    0.14188E+00   -0.13535E-02    52   0.812E-01    0.162E+01
RMM:  51    -0.162587987179E+01   -0.16449E-01   -0.70759E-03    49   0.695E-01    0.160E+01
RMM:  52    -0.285123994485E+01   -0.12254E+01   -0.14494E+00    48   0.108E+01    0.167E+01
RMM:  53    -0.295916155451E+01   -0.10792E+00   -0.12496E-01    49   0.340E+00    0.171E+01
RMM:  54    -0.297725430806E+01   -0.18093E-01   -0.73813E-03    50   0.728E-01    0.171E+01
RMM:  55    -0.287794447861E+01    0.99310E-01   -0.37186E-02    48   0.176E+00    0.166E+01
RMM:  56    -0.269902402144E+01    0.17892E+00   -0.21236E-01    48   0.404E+00    0.151E+01
RMM:  57    -0.198286042595E+01    0.71616E+00   -0.55178E-01    48   0.576E+00    0.169E+01
RMM:  58    -0.119136738995E+01    0.79149E+00   -0.51252E-01    48   0.598E+00    0.128E+01
RMM:  59    -0.123261385046E+01   -0.41246E-01   -0.22223E-01    48   0.429E+00    0.109E+01
RMM:  60    -0.161456411953E+01   -0.38195E+00   -0.79103E-02    48   0.256E+00    0.101E+01
RMM:  61    -0.191528560080E+01   -0.30072E+00   -0.68848E-02    51   0.193E+00    0.999E+00
RMM:  62    -0.183459894558E+01    0.80687E-01   -0.50979E-01    48   0.599E+00    0.137E+01
RMM:  63    -0.178826237043E+01    0.46337E-01   -0.17264E-02    49   0.150E+00    0.139E+01
RMM:  64    -0.190009172444E+01   -0.11183E+00   -0.21043E-01    48   0.410E+00    0.135E+01
RMM:  65    -0.251288729209E+01   -0.61280E+00   -0.52838E-01    48   0.562E+00    0.138E+01
RMM:  66    -0.150118385692E+01    0.10117E+01   -0.18000E+00    48   0.868E+00    0.114E+01
RMM:  67     0.609858447714E+00    0.21110E+01   -0.27496E+00    48   0.981E+00    0.659E+00
RMM:  68     0.187824826618E+01    0.12684E+01   -0.96234E-01    50   0.647E+00    0.666E+00
RMM:  69     0.162325183830E+01   -0.25500E+00   -0.81839E-02    50   0.206E+00    0.633E+00
RMM:  70     0.166906699507E+01    0.45815E-01   -0.16391E-01    48   0.332E+00    0.793E+00
RMM:  71     0.136535639045E+01   -0.30371E+00   -0.99755E-02    48   0.251E+00    0.726E+00
RMM:  72    -0.260020533946E+00   -0.16254E+01   -0.94637E-01    50   0.527E+00    0.751E+00
RMM:  73    -0.305261383346E+00   -0.45241E-01   -0.43699E-02    53   0.116E+00    0.754E+00
RMM:  74     0.416614981004E-01    0.34692E+00   -0.71027E-02    48   0.148E+00    0.730E+00
RMM:  75     0.530264756098E-01    0.11365E-01   -0.36767E-03    49   0.369E-01    0.743E+00
RMM:  76    -0.585605806340E+00   -0.63863E+00   -0.24742E-01    48   0.267E+00    0.716E+00
RMM:  77    -0.394740950986E+00    0.19086E+00   -0.19390E-01    48   0.333E+00    0.696E+00
RMM:  78    -0.633459220683E+00   -0.23872E+00   -0.90364E-02    49   0.194E+00    0.679E+00
RMM:  79    -0.636100060591E+00   -0.26408E-02   -0.15426E-03    53   0.293E-01    0.674E+00
RMM:  80    -0.399234044110E+00    0.23687E+00   -0.60413E-02    48   0.134E+00    0.646E+00
RMM:  81     0.257695849014E+00    0.65693E+00   -0.30927E-01    48   0.274E+00    0.650E+00
RMM:  82     0.231270164867E+01    0.20550E+01   -0.15754E+00    48   0.720E+00    0.710E+00
RMM:  83    -0.181142458105E+01   -0.41241E+01   -0.65294E+00    48   0.118E+01    0.947E+00
RMM:  84    -0.180864984998E+01    0.27747E-02   -0.14980E-01    49   0.200E+00    0.940E+00
RMM:  85    -0.182799638229E+01   -0.19347E-01   -0.27923E-02    48   0.130E+00    0.927E+00
RMM:  86    -0.173770014996E+01    0.90296E-01   -0.40962E-02    48   0.151E+00    0.883E+00
RMM:  87    -0.101873273925E+01    0.71897E+00   -0.14088E+00    48   0.996E+00    0.712E+00
RMM:  88    -0.195527312350E+01   -0.93654E+00   -0.11174E+00    48   0.644E+00    0.863E+00
RMM:  89    -0.185931055074E+01    0.95963E-01   -0.23752E-01    49   0.423E+00    0.802E+00
RMM:  90    -0.222034879749E+01   -0.36104E+00   -0.12760E-01    48   0.314E+00    0.727E+00
RMM:  91    -0.218479045627E+01    0.35558E-01   -0.11517E-01    48   0.296E+00    0.583E+00
RMM:  92    -0.195594696679E+01    0.22884E+00   -0.81587E-01    48   0.816E+00    0.919E+00
RMM:  93    -0.208647245138E+01   -0.13053E+00   -0.88843E-02    48   0.276E+00    0.110E+01
RMM:  94    -0.202528835063E+01    0.61184E-01   -0.10686E-02    53   0.779E-01    0.111E+01
RMM:  95    -0.200304277385E+01    0.22246E-01   -0.15022E-03    49   0.299E-01    0.112E+01
RMM:  96    -0.196981321015E+01    0.33230E-01   -0.26433E-02    48   0.142E+00    0.876E+00
RMM:  97    -0.197192370538E+01   -0.21105E-02   -0.12016E-01    48   0.273E+00    0.773E+00
RMM:  98    -0.205535645892E+01   -0.83433E-01   -0.13076E-02    48   0.108E+00    0.703E+00
RMM:  99    -0.216843158132E+01   -0.11308E+00   -0.47739E-02    48   0.175E+00    0.699E+00
RMM: 100    -0.222397316230E+01   -0.55542E-01   -0.41341E-02    49   0.155E+00
  10 F= -.22260600E+01 E0= -.22207506E+01  d E =0.516705E+01  mag=    -0.1490
 curvature: ****** expect dE=-0.464E+01 dE for cont linesearch -0.602E+00
 ZBRENT: increasing intervall
 opt : ********  next Energy=    -2.673243 (dE= 0.472E+01)
 bond charge predicted
       N       E                     dE             d eps       ncg     rms          rms(c)
DAV:   1     0.382721158052E+02    0.40441E+02   -0.25362E+03    48   0.378E+02    0.343E+01
RMM:   2     0.440954712388E+00   -0.37831E+02   -0.40151E+02    56   0.153E+02    0.149E+01
RMM:   3    -0.269827726865E+01   -0.31392E+01   -0.37706E+01    50   0.478E+01    0.170E+01
RMM:   4    -0.947821893933E+01   -0.67799E+01   -0.10382E+01    53   0.188E+01    0.329E+01
RMM:   5    -0.422176555544E+01    0.52565E+01   -0.42219E+00    51   0.127E+01    0.185E+01
RMM:   6    -0.319325835706E+01    0.10285E+01   -0.34427E-01    50   0.534E+00    0.172E+01
RMM:   7    -0.245139279264E+01    0.74187E+00   -0.92030E-01    51   0.636E+00    0.242E+01
RMM:   8    -0.169400329784E+01    0.75739E+00   -0.11451E-01    54   0.211E+00    0.858E+00
RMM:   9    -0.170509508336E+01   -0.11092E-01   -0.57749E-03    48   0.876E-01    0.906E+00
RMM:  10    -0.143287138304E+01    0.27222E+00   -0.59869E-02    48   0.211E+00    0.744E+00
RMM:  11    -0.156007424711E+01   -0.12720E+00   -0.69883E-03    48   0.925E-01    0.722E+00
RMM:  12    -0.163779620931E+01   -0.77722E-01   -0.23868E-02    49   0.141E+00    0.592E+00
RMM:  13    -0.150701241429E+01    0.13078E+00   -0.82783E-03    48   0.953E-01    0.587E+00
RMM:  14    -0.155990063308E+01   -0.52888E-01   -0.46517E-03    48   0.673E-01    0.588E+00
RMM:  15    -0.155856033686E+01    0.13403E-02   -0.13144E-02    49   0.105E+00    0.722E+00
RMM:  16    -0.159440540000E+01   -0.35845E-01   -0.87995E-03    48   0.903E-01    0.108E+01
RMM:  17    -0.150959383640E+01    0.84812E-01   -0.15933E-02    48   0.109E+00    0.106E+01
RMM:  18    -0.139563072937E+01    0.11396E+00   -0.17798E-02    48   0.117E+00    0.661E+00
RMM:  19    -0.152926744281E+01   -0.13364E+00   -0.10959E-02    48   0.101E+00    0.746E+00
RMM:  20    -0.141586650287E+01    0.11340E+00   -0.27859E-02    48   0.135E+00    0.456E+00
RMM:  21    -0.157864805014E+01   -0.16278E+00   -0.30818E-02    48   0.152E+00    0.488E+00
RMM:  22    -0.161648795359E+01   -0.37840E-01   -0.95647E-02    48   0.267E+00    0.621E+00
RMM:  23    -0.161157069643E+01    0.49173E-02   -0.47346E-02    50   0.165E+00    0.464E+00
RMM:  24    -0.166881687860E+01   -0.57246E-01   -0.42051E-02    49   0.162E+00    0.581E+00
RMM:  25    -0.169070580163E+01   -0.21889E-01   -0.12471E-02    49   0.866E-01    0.389E+00
RMM:  26    -0.154757451841E+01    0.14313E+00   -0.49738E-02    51   0.162E+00    0.587E+00
RMM:  27    -0.159834755654E+01   -0.50773E-01   -0.58139E-03    48   0.905E-01    0.389E+00
RMM:  28    -0.164319394269E+01   -0.44846E-01   -0.10323E-02    48   0.782E-01    0.460E+00
RMM:  29    -0.162062766338E+01    0.22566E-01   -0.14579E-03    48   0.460E-01    0.442E+00
RMM:  30    -0.160498434520E+01    0.15643E-01   -0.49463E-03    50   0.551E-01    0.321E+00
RMM:  31    -0.168031240647E+01   -0.75328E-01   -0.45940E-03    48   0.557E-01    0.450E+00
RMM:  32    -0.164892818903E+01    0.31384E-01   -0.83532E-04    48   0.340E-01    0.433E+00
RMM:  33    -0.167922626414E+01   -0.30298E-01   -0.99116E-03    48   0.800E-01    0.707E+00
RMM:  34    -0.168562105762E+01   -0.63948E-02   -0.54099E-03    48   0.716E-01    0.716E+00
RMM:  35    -0.168692029599E+01   -0.12992E-02   -0.12676E-03    48   0.390E-01    0.690E+00
RMM:  36    -0.168616894169E+01    0.75135E-03   -0.36458E-04    48   0.193E-01    0.669E+00
RMM:  37    -0.167699579044E+01    0.91732E-02   -0.78499E-03    48   0.740E-01    0.474E+00
RMM:  38    -0.170103632348E+01   -0.24041E-01   -0.25787E-03    48   0.572E-01    0.230E+00
RMM:  39    -0.171681660277E+01   -0.15780E-01   -0.13375E-03    48   0.367E-01    0.183E+00
RMM:  40    -0.172311545739E+01   -0.62989E-02   -0.19424E-03    49   0.393E-01    0.652E-01
RMM:  41    -0.173156455606E+01   -0.84491E-02   -0.48811E-04    48   0.235E-01    0.514E-01
RMM:  42    -0.173769958472E+01   -0.61350E-02   -0.57869E-04    48   0.198E-01    0.850E-01
RMM:  43    -0.174282462490E+01   -0.51250E-02   -0.43300E-04    50   0.193E-01    0.112E+00
RMM:  44    -0.174683481685E+01   -0.40102E-02   -0.69204E-04    49   0.236E-01    0.758E-01
RMM:  45    -0.174908156141E+01   -0.22467E-02   -0.36784E-04    48   0.202E-01    0.463E-01
RMM:  46    -0.175122388001E+01   -0.21423E-02   -0.14276E-04    49   0.126E-01    0.470E-01
RMM:  47    -0.174988232798E+01    0.13416E-02   -0.10963E-04    48   0.102E-01    0.448E-01
RMM:  48    -0.175047842840E+01   -0.59610E-03   -0.24150E-04    49   0.135E-01    0.465E-01
RMM:  49    -0.175240001079E+01   -0.19216E-02   -0.32416E-04    51   0.151E-01    0.565E-01
RMM:  50    -0.175482241525E+01   -0.24224E-02   -0.28609E-04    48   0.155E-01    0.442E-01
RMM:  51    -0.175717664923E+01   -0.23542E-02   -0.27858E-04    49   0.155E-01    0.440E-01
RMM:  52    -0.175750266673E+01   -0.32602E-03   -0.59135E-04    49   0.192E-01    0.462E-01
RMM:  53    -0.175823308942E+01   -0.73042E-03   -0.25100E-04    50   0.136E-01    0.503E-01
RMM:  54    -0.175762335674E+01    0.60973E-03   -0.88428E-05    49   0.940E-02    0.483E-01
RMM:  55    -0.175717513868E+01    0.44822E-03   -0.67607E-05    49   0.732E-02    0.350E-01
RMM:  56    -0.175921128587E+01   -0.20361E-02   -0.18942E-04    48   0.122E-01    0.276E-01
RMM:  57    -0.176008469974E+01   -0.87341E-03   -0.18851E-04    50   0.119E-01    0.159E-01
RMM:  58    -0.176185115444E+01   -0.17665E-02   -0.20248E-04    48   0.142E-01    0.144E-01
RMM:  59    -0.176233307450E+01   -0.48192E-03   -0.64686E-05    48   0.883E-02    0.895E-02
RMM:  60    -0.176322730461E+01   -0.89423E-03   -0.15972E-04    49   0.117E-01    0.682E-02
RMM:  61    -0.176388204199E+01   -0.65474E-03   -0.43626E-05    49   0.695E-02    0.311E-02
RMM:  62    -0.176420996909E+01   -0.32793E-03   -0.23796E-05    49   0.502E-02    0.422E-02
RMM:  63    -0.176461924852E+01   -0.40928E-03   -0.82840E-06    50   0.275E-02    0.233E-02
RMM:  64    -0.176489391634E+01   -0.27467E-03   -0.62612E-06    51   0.165E-02    0.200E-02
RMM:  65    -0.176502753547E+01   -0.13362E-03   -0.11921E-06    36   0.115E-02    0.194E-02
RMM:  66    -0.176512025348E+01   -0.92718E-04   -0.76705E-07    35   0.701E-03    0.187E-02
RMM:  67    -0.176517910207E+01   -0.58849E-04   -0.11944E-06    36   0.977E-03    0.952E-03
RMM:  68    -0.176524456740E+01   -0.65465E-04   -0.14123E-06    34   0.112E-02    0.898E-03
RMM:  69    -0.176531266029E+01   -0.68093E-04   -0.12000E-06    33   0.142E-02    0.328E-03
RMM:  70    -0.176533096817E+01   -0.18308E-04   -0.25857E-07    32   0.615E-03    0.235E-03
RMM:  71    -0.176534426996E+01   -0.13302E-04   -0.14580E-07    32   0.349E-03    0.229E-03
RMM:  72    -0.176535202942E+01   -0.77595E-05   -0.83280E-08    30   0.308E-03    0.128E-03
RMM:  73    -0.176536341074E+01   -0.11381E-04   -0.63473E-08    29   0.227E-03    0.875E-04
RMM:  74    -0.176537532123E+01   -0.11910E-04   -0.69429E-08    32   0.247E-03    0.865E-04
RMM:  75    -0.176538542249E+01   -0.10101E-04   -0.71816E-08    30   0.253E-03    0.925E-04
RMM:  76    -0.176538976178E+01   -0.43393E-05   -0.37467E-08    27   0.204E-03    0.104E-03
RMM:  77    -0.176539193962E+01   -0.21778E-05   -0.23443E-08    29   0.149E-03    0.196E-04
RMM:  78    -0.176539560810E+01   -0.36685E-05   -0.14087E-08    26   0.131E-03    0.143E-04
RMM:  79    -0.176539843798E+01   -0.28299E-05   -0.72834E-09    22   0.113E-03    0.405E-04
RMM:  80    -0.176540004773E+01   -0.16097E-05   -0.35868E-09    21   0.105E-03    0.119E-04
RMM:  81    -0.176540148785E+01   -0.14401E-05    0.00000E+00    17   0.938E-04    0.785E-05
RMM:  82    -0.176540261517E+01   -0.11273E-05    0.00000E+00    17   0.939E-04    0.389E-05
RMM:  83    -0.176540331057E+01   -0.69540E-06    0.00000E+00    16   0.939E-04
  11 F= -.17750393E+01 E0= -.17682833E+01  d E =0.561807E+01  mag=    -0.0000
 curvature: ****** expect dE=-0.710E+02 dE for cont linesearch -0.708E+02
 ZBRENT: increasing intervall
 opt : ********  next Energy=   -13.249719 (dE=-0.586E+01)
 bond charge predicted
       N       E                     dE             d eps       ncg     rms          rms(c)
DAV:   1     0.112098946834E+04    0.11228E+04   -0.70597E+03    72   0.306E+02    0.197E+02
RMM:   2     0.112254944354E+04    0.15600E+01   -0.31898E+02    49   0.261E+02    0.990E+01
RMM:   3     0.112665392943E+04    0.41045E+01   -0.31108E+01    52   0.943E+01    0.380E+01
RMM:   4     0.112706193318E+04    0.40800E+00   -0.49864E+00    50   0.278E+01    0.989E+00
RMM:   5     0.112710785753E+04    0.45924E-01   -0.10274E+00    48   0.979E+00    0.700E+00
RMM:   6     0.112664540345E+04   -0.46245E+00   -0.31726E-01    48   0.633E+00    0.330E+00
RMM:   7     0.112647110489E+04   -0.17430E+00   -0.80424E-02    48   0.254E+00    0.221E+00
RMM:   8     0.112611524357E+04   -0.35586E+00   -0.28868E-01    48   0.295E+00    0.769E-01
RMM:   9     0.112603489078E+04   -0.80353E-01   -0.57380E-02    48   0.131E+00    0.618E-01
RMM:  10     0.112594483046E+04   -0.90060E-01   -0.45322E-02    48   0.116E+00    0.588E-01
RMM:  11     0.112589015766E+04   -0.54673E-01   -0.31697E-02    48   0.903E-01    0.304E-01
RMM:  12     0.112586488801E+04   -0.25270E-01   -0.18812E-02    48   0.614E-01    0.167E-01
RMM:  13     0.112585627117E+04   -0.86168E-02   -0.33274E-03    48   0.239E-01    0.195E-01
RMM:  14     0.112584507595E+04   -0.11195E-01   -0.33661E-03    48   0.231E-01    0.133E-01
RMM:  15     0.112583685389E+04   -0.82221E-02   -0.16816E-03    48   0.155E-01    0.122E-01
RMM:  16     0.112582941462E+04   -0.74393E-02   -0.21643E-03    48   0.163E-01    0.700E-02
RMM:  17     0.112582762657E+04   -0.17880E-02   -0.44200E-04    48   0.813E-02    0.576E-02
RMM:  18     0.112582715788E+04   -0.46869E-03   -0.13483E-04    43   0.363E-02    0.563E-02
RMM:  19     0.112582609050E+04   -0.10674E-02   -0.14793E-04    42   0.362E-02    0.451E-02
RMM:  20     0.112582479226E+04   -0.12982E-02   -0.46153E-04    46   0.635E-02    0.373E-02
RMM:  21     0.112582443752E+04   -0.35475E-03   -0.20159E-04    42   0.426E-02    0.339E-02
RMM:  22     0.112582417126E+04   -0.26626E-03   -0.10890E-04    42   0.368E-02    0.242E-02
RMM:  23     0.112582427010E+04    0.98846E-04   -0.17571E-04    43   0.424E-02    0.218E-02
RMM:  24     0.112582393721E+04   -0.33290E-03   -0.37802E-05    42   0.271E-02    0.176E-02
RMM:  25     0.112582390825E+04   -0.28962E-04   -0.11611E-05    42   0.132E-02    0.140E-02
RMM:  26     0.112582376392E+04   -0.14432E-03   -0.21892E-05    42   0.159E-02    0.905E-03
RMM:  27     0.112582368553E+04   -0.78393E-04   -0.99284E-06    42   0.119E-02    0.578E-03
RMM:  28     0.112582360002E+04   -0.85512E-04   -0.11017E-05    42   0.119E-02    0.544E-03
RMM:  29     0.112582338498E+04   -0.21504E-03   -0.20825E-05    42   0.150E-02    0.420E-03
RMM:  30     0.112582335749E+04   -0.27495E-04   -0.32199E-06    40   0.673E-03    0.319E-03
RMM:  31     0.112582334499E+04   -0.12494E-04   -0.14277E-06    40   0.417E-03    0.301E-03
RMM:  32     0.112582332891E+04   -0.16086E-04   -0.21392E-06    39   0.375E-03    0.318E-03
RMM:  33     0.112582332560E+04   -0.33068E-05   -0.60716E-07    37   0.263E-03    0.319E-03
RMM:  34     0.112582332393E+04   -0.16703E-05   -0.24298E-07    32   0.219E-03    0.323E-03
RMM:  35     0.112582332421E+04    0.27690E-06   -0.65034E-08    30   0.156E-03
  12 F= 0.11258233E+04 E0= 0.11258233E+04  d E =0.113322E+04  mag=     0.0001
 curvature: -32.25 expect dE=-0.303E+09 dE for cont linesearch -0.848E+08
 ZBRENT: increasing intervall
 opt : ********  next Energy=-63834.790542 (dE=-0.638E+05)
 bond charge predicted
       N       E                     dE             d eps       ncg     rms          rms(c)
DAV:   1     0.341533289787E+02   -0.10917E+04   -0.55931E+03    48   0.386E+02    0.119E+02
RMM:   2     0.640927247900E+02    0.29939E+02   -0.63114E+02    68   0.118E+02    0.120E+02
RMM:   3     0.205735209668E+02   -0.43519E+02   -0.51918E+02    62   0.113E+02    0.951E+01
RMM:   4     0.573469793746E+02    0.36773E+02   -0.16950E+02    58   0.907E+01    0.759E+01
RMM:   5     0.382409054395E+02   -0.19106E+02   -0.62445E+01    53   0.550E+01    0.633E+01
