 running on   24 total cores
 distrk:  each k-point on   24 cores,    1 groups
 distr:  one band on    4 cores,    6 groups
 using from now: INCAR     
 vasp.5.4.4.18Apr17-6-g9f103f2a35 (build May 21 2019 18:55:53) complex          
  
 POSCAR found type information on POSCAR  C  O 
 POSCAR found :  2 types and       2 ions
 WARNING: type information on POSCAR and POTCAR are incompatible
 POTCAR overwrites the type information in POSCAR
 typ   1 type information:  C  O 
 WARNING: type information on POSCAR and POTCAR are incompatible
 POTCAR overwrites the type information in POSCAR
 typ   2 type information:  O  C 

 ----------------------------------------------------------------------------- 
|                                                                             |
|  ADVICE TO THIS USER RUNNING 'VASP/VAMP'   (HEAR YOUR MASTER'S VOICE ...):  |
|                                                                             |
|      You have a (more or less) 'small supercell' and for smaller cells      |
|      it is recommended  to use the reciprocal-space projection scheme!      |
|      The real space optimization is not  efficient for small cells and it   |
|      is also less accurate ...                                              |
|      Therefore set LREAL=.FALSE. in the  INCAR file                         |
|                                                                             |
 ----------------------------------------------------------------------------- 

 LDA part: xc-table for Pade appr. of Perdew
 POSCAR found type information on POSCAR  C  O 
 POSCAR found :  2 types and       2 ions
 POSCAR, INCAR and KPOINTS ok, starting setup
 FFT: planning ...
 WAVECAR not read
 WARNING: random wavefunctions but no delay for mixing, default for NELMDL
 entering main loop
       N       E                     dE             d eps       ncg     rms          rms(c)
DAV:   1     0.703404982233E+02    0.70340E+02   -0.43332E+03    48   0.560E+02
DAV:   2    -0.921567523067E+01   -0.79556E+02   -0.79556E+02    48   0.183E+02
DAV:   3    -0.157725314695E+02   -0.65569E+01   -0.65569E+01    84   0.704E+01
DAV:   4    -0.157827980326E+02   -0.10267E-01   -0.10267E-01    72   0.305E+00
DAV:   5    -0.157828306532E+02   -0.32621E-04   -0.32621E-04    84   0.147E-01    0.239E+01
RMM:   6    -0.145702670230E+02    0.12126E+01   -0.18135E+00    48   0.134E+01    0.134E+01
RMM:   7    -0.143307405702E+02    0.23953E+00   -0.11873E+00    48   0.825E+00    0.305E+00
RMM:   8    -0.143266493451E+02    0.40912E-02   -0.82352E-02    48   0.463E+00    0.101E+00
RMM:   9    -0.143168712000E+02    0.97781E-02   -0.58509E-02    48   0.250E+00    0.275E-01
RMM:  10    -0.143154452294E+02    0.14260E-02   -0.13436E-03    48   0.431E-01    0.772E-02
RMM:  11    -0.143156799767E+02   -0.23475E-03   -0.32783E-04    48   0.158E-01    0.406E-02
RMM:  12    -0.143157708780E+02   -0.90901E-04   -0.66041E-05    48   0.707E-02    0.966E-03
RMM:  13    -0.143157861860E+02   -0.15308E-04   -0.10322E-05    48   0.266E-02    0.841E-03
RMM:  14    -0.143157882017E+02   -0.20157E-05   -0.23721E-06    40   0.144E-02    0.534E-03
RMM:  15    -0.143157878178E+02    0.38384E-06   -0.17208E-06    40   0.139E-02
   1 F= -.14331660E+02 E0= -.14331660E+02  d E =-.143317E+02  mag=    -0.0000
 curvature:   0.00 expect dE= 0.000E+00 dE for cont linesearch  0.000E+00
 trial: gam= 0.00000 g(F)=  0.236E+02 g(S)=  0.611E+01 ort = 0.000E+00 (trialstep = 0.100E+01)
 search vector abs. value=  0.297E+02
 bond charge predicted
       N       E                     dE             d eps       ncg     rms          rms(c)
DAV:   1     0.819598970095E+01    0.22512E+02   -0.21964E+03    48   0.287E+02    0.340E+01
RMM:   2    -0.565122113394E+01   -0.13847E+02   -0.30416E+02    56   0.116E+02    0.258E+01
RMM:   3    -0.169881819197E+00    0.54813E+01   -0.11591E+01    48   0.345E+01    0.193E+01
RMM:   4    -0.401435089832E+01   -0.38445E+01   -0.21330E+00    48   0.120E+01    0.214E+01
RMM:   5    -0.153360616351E+02   -0.11322E+02   -0.27520E+00    48   0.793E+00    0.345E+01
RMM:   6    -0.806367911390E+01    0.72724E+01   -0.37670E-01    48   0.405E+00    0.331E+01
RMM:   7    -0.367371170939E+01    0.43900E+01   -0.24041E+00    48   0.976E+00    0.119E+01
RMM:   8    -0.111285965839E+01    0.25609E+01   -0.20497E-01    48   0.373E+00    0.756E+00
RMM:   9    -0.108270182385E+01    0.30158E-01   -0.12972E-02    48   0.893E-01    0.755E+00
RMM:  10    -0.100682412565E+01    0.75878E-01   -0.86820E-03    54   0.518E-01    0.688E+00
RMM:  11    -0.105601975248E+01   -0.49196E-01   -0.66158E-04    49   0.212E-01    0.728E+00
RMM:  12    -0.694799271207E+01   -0.58920E+01   -0.59976E-01    48   0.462E+00    0.325E+01
RMM:  13    -0.268344343129E+01    0.42645E+01   -0.11011E-01    48   0.290E+00    0.285E+01
RMM:  14    -0.179969577878E+01    0.88375E+00   -0.19310E-02    48   0.114E+00    0.264E+01
RMM:  15    -0.159968351763E+01    0.20001E+00   -0.35770E-03    48   0.582E-01    0.259E+01
RMM:  16    -0.155527323852E+01    0.44410E-01   -0.53914E-04    48   0.215E-01    0.259E+01
RMM:  17    -0.111083319981E+01    0.44444E+00   -0.29484E-03    48   0.335E-01    0.236E+01
RMM:  18    -0.109310323240E+01    0.17730E-01   -0.48344E-04    48   0.254E-01    0.236E+01
RMM:  19    -0.901164823301E+00    0.19194E+00   -0.14824E-03    48   0.290E-01    0.219E+01
RMM:  20    -0.668231464987E+00    0.23293E+00   -0.30836E-03    50   0.433E-01    0.170E+01
RMM:  21    -0.786722770144E+00   -0.11849E+00   -0.20348E-03    48   0.506E-01    0.186E+01
RMM:  22    -0.739312349263E+00    0.47410E-01   -0.18681E-04    49   0.141E-01    0.177E+01
RMM:  23    -0.558364357285E+00    0.18095E+00   -0.50655E-03    51   0.457E-01    0.683E+00
