 running on   24 total cores
 distrk:  each k-point on   24 cores,    1 groups
 distr:  one band on    4 cores,    6 groups
 using from now: INCAR     
 vasp.5.4.4.18Apr17-6-g9f103f2a35 (build May 21 2019 18:55:53) complex          
  
 POSCAR found type information on POSCAR  C  O 
 POSCAR found :  2 types and       2 ions
 WARNING: type information on POSCAR and POTCAR are incompatible
 POTCAR overwrites the type information in POSCAR
 typ   1 type information:  C  O 
 WARNING: type information on POSCAR and POTCAR are incompatible
 POTCAR overwrites the type information in POSCAR
 typ   2 type information:  O  C 

 ----------------------------------------------------------------------------- 
|                                                                             |
|  ADVICE TO THIS USER RUNNING 'VASP/VAMP'   (HEAR YOUR MASTER'S VOICE ...):  |
|                                                                             |
|      You have a (more or less) 'small supercell' and for smaller cells      |
|      it is recommended  to use the reciprocal-space projection scheme!      |
|      The real space optimization is not  efficient for small cells and it   |
|      is also less accurate ...                                              |
|      Therefore set LREAL=.FALSE. in the  INCAR file                         |
|                                                                             |
 ----------------------------------------------------------------------------- 

 LDA part: xc-table for Pade appr. of Perdew
 POSCAR found type information on POSCAR  C  O 
 POSCAR found :  2 types and       2 ions
 POSCAR, INCAR and KPOINTS ok, starting setup
 FFT: planning ...
 WAVECAR not read
 WARNING: random wavefunctions but no delay for mixing, default for NELMDL
 entering main loop
       N       E                     dE             d eps       ncg     rms          rms(c)
DAV:   1     0.898055036541E+02    0.89806E+02   -0.14381E+03    96   0.299E+02
DAV:   2     0.643680101301E+01   -0.83369E+02   -0.77652E+02    96   0.932E+01
DAV:   3    -0.144755232740E+02   -0.20912E+02   -0.20912E+02    48   0.660E+01
DAV:   4    -0.157739974705E+02   -0.12985E+01   -0.12985E+01    96   0.225E+01
DAV:   5    -0.157772538864E+02   -0.32564E-02   -0.32564E-02    72   0.860E-01    0.179E+01
DAV:   6    -0.150965809207E+02    0.68067E+00   -0.35924E+00    96   0.156E+01    0.109E+01
DAV:   7    -0.150053179559E+02    0.91263E-01   -0.22767E+00    96   0.103E+01    0.357E+00
DAV:   8    -0.149148767977E+02    0.90441E-01   -0.66493E-01    96   0.615E+00    0.491E-01
DAV:   9    -0.149132511711E+02    0.16256E-02   -0.44245E-02    72   0.147E+00    0.195E-01
DAV:  10    -0.149139183807E+02   -0.66721E-03   -0.51078E-03    96   0.581E-01    0.582E-02
DAV:  11    -0.149148712416E+02   -0.95286E-03   -0.33880E-04    72   0.127E-01    0.258E-02
DAV:  12    -0.149155405814E+02   -0.66934E-03   -0.53448E-05    96   0.413E-02    0.147E-02
DAV:  13    -0.149162411960E+02   -0.70061E-03   -0.74496E-05    72   0.440E-02    0.103E-02
DAV:  14    -0.149169437831E+02   -0.70259E-03   -0.78527E-05    72   0.356E-02    0.445E-03
DAV:  15    -0.149172468437E+02   -0.30306E-03   -0.25597E-05    96   0.178E-02    0.392E-03
DAV:  16    -0.149175133465E+02   -0.26650E-03   -0.13663E-05    72   0.149E-02    0.175E-03
DAV:  17    -0.149176780831E+02   -0.16474E-03   -0.62038E-06    96   0.795E-03    0.152E-03
DAV:  18    -0.149177800498E+02   -0.10197E-03   -0.33613E-06    48   0.613E-03    0.666E-04
DAV:  19    -0.149178314196E+02   -0.51370E-04   -0.13686E-06    96   0.399E-03    0.441E-04
DAV:  20    -0.149178544911E+02   -0.23071E-04   -0.21183E-07    72   0.177E-03    0.296E-04
DAV:  21    -0.149178754471E+02   -0.20956E-04   -0.25839E-07    72   0.168E-03    0.130E-04
DAV:  22    -0.149178808688E+02   -0.54218E-05   -0.89144E-09    96   0.543E-04    0.101E-04
DAV:  23    -0.149178854435E+02   -0.45747E-05   -0.79327E-10    48   0.365E-04    0.620E-05
DAV:  24    -0.149178876667E+02   -0.22232E-05    0.19046E-09    48   0.267E-04    0.320E-05
DAV:  25    -0.149178885322E+02   -0.86553E-06    0.42942E-09    96   0.113E-04
   1 F= -.14917899E+02 E0= -.14917899E+02  d E =-.149179E+02  mag=    -0.0000
 curvature:   0.00 expect dE= 0.000E+00 dE for cont linesearch  0.000E+00
 trial: gam= 0.00000 g(F)=  0.560E-01 g(S)=  0.000E+00 ort = 0.000E+00 (trialstep = 0.100E+01)
 search vector abs. value=  0.560E-01
 bond charge predicted
       N       E                     dE             d eps       ncg     rms          rms(c)
DAV:   1    -0.146390864237E+02    0.27880E+00   -0.18089E+01    48   0.473E+01    0.302E+00
DAV:   2    -0.146370237047E+02    0.20627E-02   -0.41866E-01    48   0.604E+00    0.206E+00
DAV:   3    -0.146220102231E+02    0.15013E-01   -0.12236E-01    72   0.313E+00    0.318E-01
DAV:   4    -0.146209103193E+02    0.10999E-02   -0.49740E-03    72   0.727E-01    0.159E-01
DAV:   5    -0.146210623635E+02   -0.15204E-03   -0.78569E-04    48   0.230E-01    0.471E-02
DAV:   6    -0.146212370540E+02   -0.17469E-03   -0.44479E-05    48   0.609E-02    0.127E-02
DAV:   7    -0.146213558222E+02   -0.11877E-03   -0.57131E-06    96   0.132E-02    0.794E-03
DAV:   8    -0.146216152175E+02   -0.25940E-03   -0.19306E-05    48   0.171E-02    0.485E-03
DAV:   9    -0.146217339354E+02   -0.11872E-03   -0.47138E-06    72   0.104E-02    0.359E-03
DAV:  10    -0.146218862321E+02   -0.15230E-03   -0.67819E-06    48   0.893E-03    0.160E-03
DAV:  11    -0.146220135241E+02   -0.12729E-03   -0.11092E-05    48   0.101E-02    0.108E-03
DAV:  12    -0.146220695632E+02   -0.56039E-04   -0.23821E-06    96   0.554E-03    0.818E-04
DAV:  13    -0.146220968596E+02   -0.27296E-04   -0.56393E-07    48   0.266E-03    0.547E-04
DAV:  14    -0.146221207794E+02   -0.23920E-04   -0.33271E-07    48   0.210E-03    0.333E-04
DAV:  15    -0.146221333061E+02   -0.12527E-04   -0.25360E-07    72   0.154E-03    0.251E-04
DAV:  16    -0.146221354520E+02   -0.21459E-05    0.64324E-09    96   0.370E-04    0.124E-04
DAV:  17    -0.146221410584E+02   -0.56064E-05   -0.24567E-08    48   0.653E-04    0.839E-05
DAV:  18    -0.146221425299E+02   -0.14715E-05    0.29917E-09    96   0.292E-04    0.406E-05
DAV:  19    -0.146221438134E+02   -0.12834E-05    0.31412E-09    48   0.201E-04    0.308E-05
DAV:  20    -0.146221442653E+02   -0.45197E-06    0.41246E-09    72   0.878E-05
   2 F= -.14622150E+02 E0= -.14622150E+02  d E =0.295748E+00  mag=    -0.0000
 trial-energy change:    0.295748  1 .order    0.327951   -0.055967    0.711868
 step:   0.0944(harm=  0.0729)  dis= 0.00237  next Energy=   -14.920567 (dE=-0.267E-02)
 bond charge predicted
       N       E                     dE             d eps       ncg     rms          rms(c)
DAV:   1    -0.149439334948E+02   -0.32179E+00   -0.14948E+01    48   0.412E+01    0.300E+00
DAV:   2    -0.149303913408E+02    0.13542E-01   -0.30189E-01    72   0.539E+00    0.179E+00
DAV:   3    -0.149199663345E+02    0.10425E-01   -0.82051E-02    72   0.242E+00    0.302E-01
DAV:   4    -0.149198716914E+02    0.94643E-04   -0.65532E-03    96   0.588E-01    0.164E-01
DAV:   5    -0.149197774854E+02    0.94206E-04   -0.12399E-03    96   0.305E-01    0.584E-02
DAV:   6    -0.149199168412E+02   -0.13936E-03   -0.17908E-04    72   0.105E-01    0.174E-02
DAV:   7    -0.149200612924E+02   -0.14445E-03   -0.22925E-05    48   0.343E-02    0.601E-03
DAV:   8    -0.149201475990E+02   -0.86307E-04   -0.63007E-06    96   0.118E-02    0.352E-03
DAV:   9    -0.149202533950E+02   -0.10580E-03   -0.71475E-06    48   0.114E-02    0.315E-03
DAV:  10    -0.149203622028E+02   -0.10881E-03   -0.96206E-06    72   0.120E-02    0.186E-03
DAV:  11    -0.149204218099E+02   -0.59607E-04   -0.35421E-06    72   0.716E-03    0.893E-04
DAV:  12    -0.149204604586E+02   -0.38649E-04   -0.97242E-07    72   0.324E-03    0.478E-04
DAV:  13    -0.149204791681E+02   -0.18709E-04   -0.31607E-07    96   0.188E-03    0.388E-04
DAV:  14    -0.149204917543E+02   -0.12586E-04   -0.13141E-07    48   0.129E-03    0.259E-04
DAV:  15    -0.149204983408E+02   -0.65865E-05   -0.20794E-08    96   0.656E-04    0.120E-04
DAV:  16    -0.149205019472E+02   -0.36064E-05   -0.48295E-09    48   0.372E-04    0.862E-05
DAV:  17    -0.149205042918E+02   -0.23446E-05   -0.22142E-09    96   0.297E-04    0.441E-05
DAV:  18    -0.149205057818E+02   -0.14900E-05    0.44889E-10    48   0.197E-04    0.266E-05
DAV:  19    -0.149205065686E+02   -0.78680E-06    0.29213E-09    72   0.124E-04
   3 F= -.14920516E+02 E0= -.14920516E+02  d E =-.261758E-02  mag=    -0.0000
 curvature:  -0.04 expect dE=-0.710E-06 dE for cont linesearch -0.709E-06
 ZBRENT: interpolating
 opt :   0.0927  next Energy=   -14.920517 (dE=-0.262E-02)
 bond charge predicted
       N       E                     dE             d eps       ncg     rms          rms(c)
DAV:   1    -0.149205079213E+02   -0.21395E-05   -0.52387E-05    48   0.787E-02    0.396E-03
DAV:   2    -0.149205078260E+02    0.95248E-07   -0.12115E-06    96   0.973E-03    0.245E-03
DAV:   3    -0.149205079814E+02   -0.15533E-06   -0.17782E-07    48   0.420E-03    0.691E-04
DAV:   4    -0.149205080754E+02   -0.94007E-07   -0.14305E-09    96   0.802E-04    0.218E-04
DAV:   5    -0.149205081400E+02   -0.64669E-07    0.10471E-08    60   0.404E-04
   4 F= -.14920518E+02 E0= -.14920518E+02  d E =-.261916E-02  mag=    -0.0000
 curvature:  -0.05 expect dE=-0.116E-08 dE for cont linesearch -0.529E-09
 trial: gam=-0.00045 g(F)=  0.250E-07 g(S)=  0.000E+00 ort = 0.253E-04 (trialstep = 0.819E+00)
 search vector abs. value=  0.137E-07
 reached required accuracy - stopping structural energy minimisation
