       N       E                     dE             d eps       ncg     rms          rms(c)
DAV:   1     0.628317180860E+02    0.62832E+02   -0.12863E+03    96   0.283E+02
DAV:   2     0.368048978662E+02   -0.26027E+02   -0.25785E+02    72   0.474E+01
DAV:   3     0.466590472008E+01   -0.32139E+02   -0.30694E+02    96   0.542E+01
DAV:   4    -0.717624116483E+01   -0.11842E+02   -0.11842E+02    48   0.343E+01
DAV:   5    -0.748580262142E+01   -0.30956E+00   -0.30956E+00    48   0.142E+01    0.148E+01
DAV:   6    -0.413426677321E+02   -0.33857E+02   -0.56201E+02    48   0.404E+01    0.384E+01
DAV:   7    -0.142598853174E+01    0.39917E+02   -0.10688E+01    72   0.169E+01    0.319E+01
DAV:   8    -0.557335866346E+01   -0.41474E+01   -0.16876E+02    48   0.420E+00    0.139E+01
DAV:   9    -0.306666207417E+01    0.25067E+01   -0.29974E-01    48   0.299E+00    0.131E+01
DAV:  10    -0.288582915225E+01    0.18083E+00   -0.80264E-03    96   0.649E-01    0.130E+01
DAV:  11    -0.424485993963E+01   -0.13590E+01   -0.20050E-02    48   0.725E-01    0.131E+01
DAV:  12    -0.782519819419E+01   -0.35803E+01   -0.13507E-01    72   0.136E+00    0.136E+01
DAV:  13    -0.420001586102E+01    0.36252E+01   -0.13176E-01    48   0.137E+00    0.131E+01
DAV:  14    -0.685514482591E+01   -0.26551E+01   -0.92340E+01    84   0.271E+00    0.316E+01
DAV:  15    -0.176827297596E+01    0.50869E+01   -0.47557E+01    72   0.337E+00    0.135E+01
DAV:  16    -0.226042899445E+01   -0.49216E+00   -0.37400E-02    96   0.175E+00    0.132E+01
DAV:  17    -0.114243204823E+01    0.11180E+01   -0.17456E-02    72   0.528E-01    0.130E+01
DAV:  18    -0.220285757221E+01   -0.10604E+01   -0.18633E-02    72   0.571E-01    0.132E+01
DAV:  19    -0.149352775079E+01    0.70933E+00   -0.73611E-03    48   0.359E-01    0.131E+01
DAV:  20    -0.170456675559E+01   -0.21104E+00   -0.19000E+01    72   0.888E-01    0.310E+01
DAV:  21    -0.187318477271E+02   -0.17027E+02   -0.54799E+02    72   0.124E+01    0.164E+01
DAV:  22    -0.834641292077E+01    0.10385E+02   -0.12671E+00    48   0.514E+00    0.145E+01
DAV:  23    -0.311732691752E+01    0.52291E+01   -0.38899E-01    72   0.265E+00    0.136E+01
DAV:  24    -0.359386772354E+01   -0.47654E+00   -0.38789E-03    72   0.330E-01    0.136E+01
DAV:  25    -0.273136126247E+01    0.86251E+00   -0.13649E-02    96   0.532E-01    0.134E+01
DAV:  26    -0.884537087167E+00    0.18468E+01   -0.56301E-02    72   0.103E+00    0.130E+01
DAV:  27    -0.149263473186E+01   -0.60810E+00   -0.15916E+01    96   0.553E-01    0.310E+01
DAV:  28    -0.316118775158E+02   -0.30119E+02   -0.87804E+02    72   0.197E+01    0.184E+01
DAV:  29    -0.957568635489E+01    0.22036E+02   -0.46760E+00    72   0.960E+00    0.149E+01
DAV:  30    -0.350574418078E+01    0.60699E+01   -0.55341E-01    72   0.353E+00    0.136E+01
DAV:  31    -0.261973261674E+01    0.88601E+00   -0.16572E-02    96   0.533E-01    0.135E+01
DAV:  32    -0.247795915660E+01    0.14177E+00   -0.31616E-04    96   0.933E-02    0.134E+01
DAV:  33    -0.127100768745E+01    0.12070E+01   -0.23218E-02    72   0.662E-01    0.132E+01
DAV:  34    -0.366853706815E+01   -0.23975E+01   -0.46875E+01    72   0.133E+00    0.312E+01
DAV:  35    -0.251948576162E+02   -0.21526E+02   -0.71952E+02    72   0.169E+01    0.176E+01
DAV:  36    -0.692901973318E+01    0.18266E+02   -0.34711E+00    72   0.866E+00    0.145E+01
DAV:  37    -0.664260145495E+00    0.62648E+01   -0.41023E+00    72   0.401E+00    0.214E+01
DAV:  38    -0.285461985669E+02   -0.27882E+02   -0.49287E+02    72   0.189E+01    0.178E+01
DAV:  39    -0.139869202133E+02    0.14559E+02   -0.18340E+00    48   0.600E+00    0.157E+01
DAV:  40    -0.838755072992E+01    0.55994E+01   -0.42842E-01    72   0.315E+00    0.146E+01
DAV:  41    -0.545172335315E+01    0.29358E+01   -0.11227E-01    72   0.150E+00    0.141E+01
DAV:  42    -0.405275458287E+01    0.13990E+01   -0.28008E-02    96   0.700E-01    0.138E+01
DAV:  43    -0.191381054029E+01    0.21389E+01   -0.72184E-02    72   0.121E+00    0.133E+01
DAV:  44    -0.591017584530E+00    0.13228E+01   -0.16826E+00    96   0.926E-01    0.154E+01
DAV:  45    -0.552441137087E+02   -0.54653E+02   -0.67164E+02    48   0.371E+01    0.211E+01
DAV:  46    -0.319937114276E+02    0.23250E+02   -0.43081E+00    72   0.948E+00    0.187E+01
DAV:  47    -0.195218075517E+02    0.12472E+02   -0.16215E+00    96   0.626E+00    0.166E+01
DAV:  48    -0.472595412029E+01    0.14796E+02   -0.23014E+00    60   0.689E+00    0.140E+01
DAV:  49    -0.157207359343E+01    0.31539E+01   -0.23075E-01    96   0.222E+00    0.133E+01
DAV:  50    -0.192667595570E+01   -0.35460E+00   -0.23710E+01    48   0.114E+00    0.305E+01
DAV:  51    -0.191630835891E+02   -0.17236E+02   -0.55712E+02    72   0.153E+01    0.165E+01
DAV:  52    -0.648035490381E+01    0.12683E+02   -0.17656E+00    72   0.584E+00    0.144E+01
DAV:  53    -0.180144225670E+01    0.46789E+01   -0.32160E-01    72   0.252E+00    0.134E+01
DAV:  54    -0.179899375904E+01    0.24485E-02   -0.20377E+01    96   0.107E+00    0.310E+01
DAV:  55    -0.150872861205E+02   -0.13288E+02   -0.44840E+02    72   0.105E+01    0.160E+01
DAV:  56    -0.976185217563E+01    0.53254E+01   -0.13658E+02    72   0.957E+00    0.316E+01
DAV:  57    -0.586263858042E+02   -0.48865E+02   -0.10543E+01    72   0.140E+01    0.353E+01
DAV:  58    -0.355451823271E+02    0.23081E+02   -0.10239E+03    96   0.360E+01    0.189E+01
DAV:  59    -0.755206121818E+01    0.27993E+02   -0.13016E+02    96   0.177E+01    0.297E+01
DAV:  60    -0.699392383400E+01    0.55814E+00   -0.29762E+01    48   0.168E+01    0.313E+01
DAV:  61    -0.228818781717E+02   -0.15888E+02   -0.66172E+02    72   0.158E+01    0.172E+01
DAV:  62    -0.815828247984E+01    0.14724E+02   -0.22805E+00    72   0.691E+00    0.147E+01
DAV:  63    -0.295289782705E+01    0.52054E+01   -0.36585E-01    48   0.282E+00    0.136E+01
DAV:  64    -0.656794103340E+01   -0.36150E+01   -0.88103E+01    72   0.323E+00    0.314E+01
DAV:  65    -0.250331027761E+02   -0.18465E+02   -0.71815E+02    72   0.176E+01    0.175E+01
DAV:  66    -0.389995281237E+01    0.21133E+02   -0.47174E+00    72   0.974E+00    0.139E+01
DAV:  67    -0.223092917231E+01    0.16690E+01   -0.72024E-02    84   0.128E+00    0.135E+01
DAV:  68    -0.630904231038E+01   -0.40781E+01   -0.84263E+01    72   0.238E+00    0.314E+01
DAV:  69    -0.224162707936E+02   -0.16107E+02   -0.64980E+02    72   0.160E+01    0.171E+01
DAV:  70    -0.521434211305E+01    0.17202E+02   -0.31558E+00    72   0.800E+00    0.141E+01
DAV:  71    -0.526564010928E+00    0.46878E+01   -0.37991E-01    72   0.271E+00    0.155E+00
DAV:  72    -0.456322356734E+01   -0.40367E+01   -0.68998E-01    72   0.295E+00    0.140E+01
DAV:  73    -0.535657527535E+00    0.40276E+01   -0.26291E-01    48   0.224E+00    0.350E+00
DAV:  74    -0.671615375957E+01   -0.61805E+01   -0.14682E+00    48   0.496E+00    0.143E+01
DAV:  75    -0.683970826089E+01   -0.12355E+00   -0.92529E+01    48   0.447E+00    0.314E+01
DAV:  76    -0.233403449545E+02   -0.16501E+02   -0.67390E+02    72   0.160E+01    0.172E+01
DAV:  77    -0.832973525786E+01    0.15011E+02   -0.22934E+00    72   0.691E+00    0.147E+01
DAV:  78    -0.625408312699E+01    0.20757E+01   -0.66947E-02    72   0.122E+00    0.143E+01
DAV:  79    -0.301063707717E+01    0.32434E+01   -0.14482E-01    72   0.167E+00    0.137E+01
DAV:  80    -0.698143045514E+00    0.23125E+01   -0.90382E-02    84   0.129E+00    0.128E+01
DAV:  81    -0.139555908865E+01   -0.69742E+00   -0.13141E-02    72   0.420E-01    0.133E+01
DAV:  82    -0.964947981504E+01   -0.82539E+01   -0.13099E+02    48   0.279E+00    0.317E+01
DAV:  83    -0.373406012389E+02   -0.27691E+02   -0.10236E+03    72   0.243E+01    0.192E+01
DAV:  84    -0.976139515219E+01    0.27579E+02   -0.69217E+00    96   0.119E+01    0.149E+01
DAV:  85    -0.103737327327E+02   -0.61234E+00   -0.12281E-02    84   0.623E-01    0.151E+01
DAV:  86    -0.411499800509E+01    0.62587E+01   -0.47274E-01    60   0.309E+00    0.139E+01
DAV:  87    -0.129105325292E+01    0.28239E+01   -0.13337E-01    48   0.165E+00    0.133E+01
DAV:  88    -0.263204211835E+02   -0.25029E+02   -0.35904E+02    72   0.656E+00    0.330E+01
DAV:  89    -0.210655656748E+02    0.52549E+01   -0.62613E+02    72   0.206E+01    0.168E+01
DAV:  90    -0.255694800285E+02   -0.45039E+01   -0.35925E+02    72   0.154E+01    0.329E+01
DAV:  91    -0.772144129154E+01    0.17848E+02   -0.24167E+02    72   0.127E+01    0.145E+01
DAV:  92    -0.318723433769E+02   -0.24151E+02   -0.43625E+02    60   0.110E+01    0.334E+01
DAV:  93    -0.742964095464E+01    0.24443E+02   -0.26567E+00    60   0.665E+00    0.316E+01
DAV:  94    -0.821320423249E+01   -0.78356E+00   -0.25160E+02    72   0.818E+00    0.146E+01
DAV:  95    -0.373554668001E+02   -0.29142E+02   -0.50944E+02    60   0.125E+01    0.339E+01
DAV:  96    -0.316716103047E+01    0.34188E+02   -0.10153E+02    60   0.122E+01    0.134E+01
DAV:  97    -0.615052891739E+02   -0.58338E+02   -0.81627E+02    60   0.144E+01    0.356E+01
DAV:  98    -0.109928644483E+02    0.50512E+02   -0.92939E+00    96   0.133E+01    0.319E+01
DAV:  99    -0.133416167583E+01    0.96587E+01   -0.34800E+01    72   0.411E+00    0.129E+01
DAV: 100    -0.630837540463E+02   -0.61750E+02   -0.83485E+02    60   0.143E+01
   1 F= -.63084094E+02 E0= -.63084094E+02  d E =-.630841E+02  mag=     0.0614
       N       E                     dE             d eps       ncg     rms          rms(c)
DAV:   1    -0.197036626505E+02   -0.18370E+02   -0.62158E+02    48   0.341E+01    0.156E+01
DAV:   2    -0.214202838942E+02   -0.17166E+01   -0.29391E+02    72   0.378E+01    0.371E+01
DAV:   3    -0.898750215079E+01    0.12433E+02   -0.27725E+02    72   0.177E+01    0.128E+01
DAV:   4    -0.787742410027E+01    0.11101E+01   -0.10322E-01    84   0.206E+00    0.124E+01
DAV:   5    -0.200648006624E+02   -0.12187E+02   -0.25148E+00    48   0.771E+00    0.151E+01
DAV:   6    -0.336245233691E+02   -0.13560E+02   -0.21516E+00    84   0.671E+00    0.173E+01
DAV:   7    -0.222898295341E+02    0.11335E+02   -0.13744E+00    96   0.518E+00    0.156E+01
DAV:   8    -0.250027639070E+01    0.19790E+02   -0.50625E+00    60   0.924E+00    0.121E+01
DAV:   9    -0.269859571871E+02   -0.24486E+02   -0.40365E+02    72   0.885E+00    0.313E+01
DAV:  10    -0.272178837425E+02   -0.23193E+00   -0.92421E+01    72   0.138E+01    0.331E+01
DAV:  11    -0.760933907047E+01    0.19609E+02   -0.24092E+02    84   0.149E+01    0.146E+01
DAV:  12    -0.163941194102E+02   -0.87848E+01   -0.79593E-01    72   0.353E+00    0.158E+01
DAV:  13    -0.202183647842E+02   -0.38242E+01   -0.12663E-01    84   0.148E+00    0.164E+01
DAV:  14    -0.138145387039E+02    0.64038E+01   -0.42984E-01    60   0.274E+00    0.154E+01
DAV:  15    -0.104897543841E+02    0.33248E+01   -0.14354E-01    84   0.179E+00    0.147E+01
DAV:  16    -0.733749689477E+01    0.31523E+01   -0.12400E-01    84   0.154E+00    0.142E+01
DAV:  17    -0.542233595543E+01    0.19152E+01   -0.49020E-02    96   0.938E-01    0.138E+01
DAV:  18    -0.184109470078E+01    0.35812E+01   -0.17757E-01    84   0.174E+00    0.131E+01
DAV:  19    -0.196338227788E+02   -0.17793E+02   -0.26892E+02    72   0.462E+00    0.328E+01
DAV:  20    -0.137014360484E+02    0.59324E+01   -0.42039E+02    72   0.172E+01    0.159E+01
DAV:  21    -0.575962077901E+01    0.79418E+01   -0.92580E-01    60   0.489E+00    0.141E+01
DAV:  22    -0.109686904139E+01    0.46628E+01   -0.10598E+01    60   0.331E+00    0.260E+01
DAV:  23    -0.306740300567E+01   -0.19705E+01   -0.66712E+01    60   0.263E+00    0.135E+01
DAV:  24    -0.548607620346E+01   -0.24187E+01   -0.72899E+01    60   0.234E+00    0.314E+01
DAV:  25    -0.194033574063E+01    0.35457E+01   -0.53008E+01    72   0.232E+00    0.138E+01
DAV:  26    -0.445325521435E+01   -0.25129E+01   -0.74861E-02    60   0.163E+00    0.138E+01
DAV:  27    -0.210827481178E+01    0.23450E+01   -0.66657E-02    72   0.116E+00    0.134E+01
DAV:  28    -0.134186422091E+01    0.76641E+00   -0.14010E+01    72   0.110E+00    0.299E+01
DAV:  29    -0.159958299792E+01   -0.25772E+00   -0.38841E+01    60   0.103E+00    0.135E+01
DAV:  30    -0.175878635194E+01   -0.15920E+00   -0.16319E-02    60   0.106E+00    0.134E+01
DAV:  31    -0.274001590069E+01   -0.98123E+00   -0.33863E+01    72   0.135E+00    0.312E+01
DAV:  32    -0.458772850613E+01   -0.18477E+01   -0.13774E+02    72   0.364E+00    0.142E+01
DAV:  33    -0.187455740249E+01    0.27132E+01   -0.15573E-01    72   0.221E+00    0.134E+01
DAV:  34    -0.296892010181E+01   -0.10944E+01   -0.37085E+01    72   0.146E+00    0.312E+01
DAV:  35    -0.644612117170E+01   -0.34772E+01   -0.19585E+02    60   0.517E+00    0.145E+01
DAV:  36    -0.132879316959E+01    0.51173E+01   -0.41529E-01    72   0.320E+00    0.134E+01
DAV:  37    -0.270641333594E+01   -0.13776E+01   -0.33306E+01    72   0.120E+00    0.312E+01
DAV:  38    -0.706046193182E+01   -0.43540E+01   -0.21459E+02    72   0.541E+00    0.146E+01
DAV:  39    -0.122168780274E+01    0.58388E+01   -0.53797E-01    72   0.359E+00    0.133E+01
DAV:  40    -0.251765433979E+01   -0.12960E+01   -0.30600E+01    72   0.104E+00    0.312E+01
DAV:  41    -0.753041110243E+01   -0.50128E+01   -0.22887E+02    60   0.566E+00    0.147E+01
DAV:  42    -0.699084513660E+00    0.68313E+01   -0.41030E+00    72   0.412E+00    0.185E+01
DAV:  43    -0.486138616148E+01   -0.41623E+01   -0.17385E+00    48   0.175E+00    0.313E+01
DAV:  44    -0.155876361648E+01    0.33026E+01   -0.41046E+01    48   0.218E+00    0.134E+01
DAV:  45    -0.493649663307E+01   -0.33777E+01   -0.64675E+01    72   0.148E+00    0.313E+01
DAV:  46    -0.508520985306E+01   -0.14871E+00   -0.15397E+02    60   0.497E+00    0.143E+01
DAV:  47    -0.633463767904E+00    0.44517E+01   -0.20397E+00    60   0.298E+00    0.120E+01
DAV:  48    -0.185327711510E+01   -0.12198E+01   -0.96229E+00    48   0.171E+00    0.135E+01
DAV:  49    -0.312181825134E+01   -0.12685E+01   -0.24491E-02    72   0.750E-01    0.137E+01
DAV:  50    -0.894015607670E+00    0.22278E+01   -0.71189E-02    72   0.112E+00    0.132E+01
DAV:  51    -0.871801805223E+00    0.22214E-01   -0.51851E-04    84   0.117E-01    0.131E+01
DAV:  52    -0.972315418354E+01   -0.88514E+01   -0.11320E+00    72   0.462E+00    0.150E+01
DAV:  53    -0.106325290786E+02   -0.90937E+00   -0.13805E-02    96   0.519E-01    0.151E+01
DAV:  54    -0.110948721023E+02   -0.46234E+00   -0.21768E-03    72   0.221E-01    0.152E+01
DAV:  55    -0.113109876407E+02   -0.21612E+00   -0.54519E-04    72   0.136E-01    0.153E+01
DAV:  56    -0.114454559090E+02   -0.13447E+00   -0.20824E-04    84   0.784E-02    0.153E+01
DAV:  57    -0.117140258799E+02   -0.26857E+00   -0.80036E-04    72   0.129E-01    0.153E+01
DAV:  58    -0.114523271819E+02    0.26170E+00   -0.77924E-04    72   0.135E-01    0.153E+01
DAV:  59    -0.108824688050E+02    0.56986E+00   -0.39032E-03    60   0.301E-01    0.152E+01
DAV:  60    -0.103555826281E+02    0.52689E+00   -0.35821E-03    84   0.258E-01    0.151E+01
DAV:  61    -0.865291767254E+01    0.17027E+01   -0.34150E-02    84   0.794E-01    0.148E+01
DAV:  62    -0.555034851653E+01    0.31026E+01   -0.11536E-01    72   0.145E+00    0.142E+01
DAV:  63    -0.200245365342E+01    0.35479E+01   -0.17627E-01    60   0.182E+00    0.135E+01
DAV:  64    -0.731508390987E+00    0.12709E+01   -0.35474E+00    96   0.104E+00    0.174E+01
DAV:  65    -0.394630733465E+01   -0.32148E+01   -0.44290E+01    60   0.308E+00    0.139E+01
DAV:  66    -0.331311056764E+01    0.63320E+00   -0.42149E+01    60   0.252E+00    0.310E+01
DAV:  67    -0.151324031796E+02   -0.11819E+02   -0.13049E+00    84   0.505E+00    0.322E+01
DAV:  68    -0.649170746153E+01    0.86407E+01   -0.20170E+02    72   0.104E+01    0.143E+01
DAV:  69    -0.111570858413E+02   -0.46654E+01   -0.15315E+02    48   0.531E+00    0.317E+01
DAV:  70    -0.600157409728E+01    0.51555E+01   -0.18391E+02    72   0.816E+00    0.141E+01
DAV:  71    -0.976149700857E+01   -0.37599E+01   -0.13349E+02    60   0.459E+00    0.316E+01
DAV:  72    -0.422053636170E+01    0.55410E+01   -0.12726E+02    60   0.640E+00    0.138E+01
DAV:  73    -0.154874974287E+01    0.26718E+01   -0.16907E+01    60   0.203E+00    0.302E+01
DAV:  74    -0.202075350936E+02   -0.18659E+02   -0.25233E+00    84   0.631E+00    0.326E+01
DAV:  75    -0.949340625001E+00    0.19258E+02   -0.23914E+01    72   0.756E+00    0.131E+01
DAV:  76    -0.670724191198E+01   -0.57579E+01   -0.89556E+01    84   0.146E+00    0.313E+01
DAV:  77    -0.219565495010E+01    0.45116E+01   -0.61743E+01    84   0.350E+00    0.136E+01
DAV:  78    -0.151451292884E+01    0.68114E+00   -0.16232E+01    72   0.131E+00    0.298E+01
DAV:  79    -0.211912119268E+01   -0.60461E+00   -0.35372E-02    60   0.114E+00    0.308E+01
DAV:  80    -0.624799513523E+00    0.14943E+01   -0.78893E+00    60   0.508E-01    0.900E+00
DAV:  81    -0.480472231457E+02   -0.47422E+02   -0.11439E+02    72   0.232E+01    0.204E+01
DAV:  82    -0.911178532298E+01    0.38935E+02   -0.13505E+01    96   0.149E+01    0.149E+01
DAV:  83    -0.114008145601E+02   -0.22890E+01   -0.71381E-02    72   0.140E+00    0.152E+01
DAV:  84    -0.140206477020E+02   -0.26198E+01   -0.83979E-02    72   0.131E+00    0.157E+01
DAV:  85    -0.134902285489E+02    0.53042E+00   -0.38249E-03    72   0.275E-01    0.156E+01
DAV:  86    -0.119949186660E+02    0.14953E+01   -0.23921E-02    72   0.638E-01    0.154E+01
DAV:  87    -0.698753607286E+01    0.50074E+01   -0.28225E-01    60   0.237E+00    0.145E+01
DAV:  88    -0.454374011442E+01    0.24438E+01   -0.89046E-02    84   0.135E+00    0.140E+01
DAV:  89    -0.361560569749E+01    0.92813E+00   -0.12442E-02    84   0.487E-01    0.138E+01
DAV:  90    -0.358623671452E+01    0.29369E-01   -0.46163E+01    60   0.248E+00    0.311E+01
DAV:  91    -0.286996789792E+02   -0.25113E+02   -0.80836E+02    72   0.195E+01    0.180E+01
DAV:  92    -0.150434584965E+02    0.13656E+02   -0.17356E+00    72   0.583E+00    0.159E+01
DAV:  93    -0.136059993108E+02    0.14375E+01   -0.29431E-02    60   0.919E-01    0.157E+01
DAV:  94    -0.123313184784E+02    0.12747E+01   -0.19014E-02    60   0.649E-01    0.154E+01
DAV:  95    -0.984982296059E+01    0.24815E+01   -0.68179E-02    72   0.117E+00    0.150E+01
DAV:  96    -0.662283645688E+01    0.32270E+01   -0.12210E-01    48   0.157E+00    0.144E+01
DAV:  97    -0.678054053644E+01   -0.15770E+00   -0.41160E-03    96   0.377E-01    0.144E+01
DAV:  98    -0.443045318051E+01    0.23501E+01   -0.72676E-02    72   0.119E+00    0.140E+01
DAV:  99    -0.340713076615E+01    0.10233E+01   -0.17788E-02    96   0.592E-01    0.138E+01
DAV: 100    -0.180277930563E+01    0.16044E+01   -0.38280E-02    84   0.832E-01
   2 F= -.18031005E+01 E0= -.18031005E+01  d E =0.612810E+02  mag=     0.1024
       N       E                     dE             d eps       ncg     rms          rms(c)
DAV:   1    -0.623004184911E+00    0.27841E+01   -0.48080E-01    96   0.306E+00    0.950E+00
DAV:   2     0.279571876206E+01    0.34187E+01   -0.17007E+01    48   0.166E+01    0.143E+01
DAV:   3     0.365349039356E+01    0.85777E+00   -0.67044E-01    84   0.617E+00    0.105E+01
DAV:   4     0.135304970050E+01   -0.23004E+01   -0.29189E+00    48   0.886E+00    0.576E+00
DAV:   5     0.127443951014E+01   -0.78610E-01   -0.39530E-01    84   0.504E+00    0.405E+00
DAV:   6    -0.105230621623E+00   -0.13797E+01   -0.70933E-01    48   0.500E+00    0.169E+01
DAV:   7    -0.100041797117E+00    0.51888E-02   -0.36854E-01    72   0.516E+00    0.432E+00
DAV:   8    -0.171932529309E+01   -0.16193E+01   -0.19158E-01    48   0.291E+00    0.132E+01
DAV:   9    -0.758729686825E+00    0.96060E+00   -0.61326E-02    48   0.174E+00    0.603E+00
DAV:  10    -0.121841454673E+01   -0.45968E+00   -0.53563E-02    48   0.147E+00    0.316E+00
DAV:  11    -0.183129287779E+01   -0.61288E+00   -0.13329E-01    48   0.217E+00    0.253E+00
DAV:  12    -0.191930992666E+01   -0.88017E-01   -0.34330E-02    96   0.104E+00    0.212E+00
DAV:  13    -0.187631446162E+01    0.42995E-01   -0.35930E-03    96   0.205E-01    0.211E+00
DAV:  14    -0.210375557963E+01   -0.22744E+00   -0.23093E-02    84   0.779E-01    0.179E+00
DAV:  15    -0.208828009632E+01    0.15475E-01   -0.24199E-03    96   0.261E-01    0.180E+00
DAV:  16    -0.233523112938E+01   -0.24695E+00   -0.36955E-02    48   0.906E-01    0.151E+00
DAV:  17    -0.242154822506E+01   -0.86317E-01   -0.56971E-03    96   0.383E-01    0.139E+00
DAV:  18    -0.244867753871E+01   -0.27129E-01   -0.11579E-02    72   0.406E-01    0.129E+00
DAV:  19    -0.279275379124E+01   -0.34408E+00   -0.15361E-02    60   0.751E-01    0.968E-01
DAV:  20    -0.314549965696E+01   -0.35275E+00   -0.16641E-02    60   0.917E-01    0.607E-01
DAV:  21    -0.320398394695E+01   -0.58484E-01   -0.17482E-03    72   0.290E-01    0.566E-01
DAV:  22    -0.324579674587E+01   -0.41813E-01   -0.24934E-03    96   0.321E-01    0.531E-01
DAV:  23    -0.326434490557E+01   -0.18548E-01   -0.15500E-03    84   0.229E-01    0.508E-01
DAV:  24    -0.327290314079E+01   -0.85582E-02   -0.60456E-04    72   0.124E-01    0.476E-01
DAV:  25    -0.328239050072E+01   -0.94874E-02   -0.98151E-04    84   0.172E-01    0.414E-01
DAV:  26    -0.329275602613E+01   -0.10366E-01   -0.13033E-03    84   0.190E-01    0.308E-01
DAV:  27    -0.330665882811E+01   -0.13903E-01   -0.77420E-04    84   0.147E-01    0.206E+00
DAV:  28    -0.330101142334E+01    0.56474E-02   -0.28154E-04    84   0.163E-01    0.265E+00
DAV:  29    -0.329788980908E+01    0.31216E-02   -0.10422E-04    96   0.910E-02    0.313E+00
DAV:  30    -0.330315342343E+01   -0.52636E-02   -0.25964E-04    60   0.778E-02    0.409E+00
DAV:  31    -0.329421271310E+01    0.89407E-02   -0.16199E-04    96   0.948E-02    0.375E+00
DAV:  32    -0.329357005461E+01    0.64266E-03   -0.43750E-06    84   0.166E-02    0.356E+00
DAV:  33    -0.329624084775E+01   -0.26708E-02   -0.24994E-05    84   0.233E-02    0.373E+00
DAV:  34    -0.329566987931E+01    0.57097E-03   -0.36167E-05    60   0.343E-02    0.349E+00
DAV:  35    -0.329639603069E+01   -0.72615E-03   -0.34280E-04    72   0.141E-01    0.205E+00
DAV:  36    -0.330664075607E+01   -0.10245E-01   -0.32867E-04    84   0.159E-01    0.156E+00
DAV:  37    -0.331149281015E+01   -0.48521E-02   -0.19614E-04    72   0.116E-01    0.102E+00
DAV:  38    -0.331730260542E+01   -0.58098E-02   -0.19998E-04    72   0.117E-01    0.670E-01
DAV:  39    -0.332039284247E+01   -0.30902E-02   -0.11683E-04    72   0.776E-02    0.415E-01
DAV:  40    -0.332224256376E+01   -0.18497E-02   -0.54264E-05    96   0.585E-02    0.358E-01
DAV:  41    -0.332328501175E+01   -0.10424E-02   -0.48852E-05    84   0.467E-02    0.288E-01
DAV:  42    -0.332395937816E+01   -0.67437E-03   -0.13876E-05    72   0.279E-02    0.257E-01
DAV:  43    -0.332421589079E+01   -0.25651E-03   -0.22602E-06    84   0.120E-02    0.250E-01
DAV:  44    -0.332428776069E+01   -0.71870E-04   -0.40699E-07    72   0.466E-03    0.247E-01
DAV:  45    -0.332434301805E+01   -0.55257E-04   -0.97585E-07    72   0.573E-03    0.251E-01
DAV:  46    -0.332454317857E+01   -0.20016E-03   -0.19293E-05    60   0.251E-02    0.257E-01
DAV:  47    -0.332470406609E+01   -0.16089E-03   -0.24714E-05    96   0.282E-02    0.220E-01
DAV:  48    -0.332489370426E+01   -0.18964E-03   -0.13461E-05    60   0.220E-02    0.137E-01
DAV:  49    -0.332505155506E+01   -0.15785E-03   -0.39833E-06    48   0.162E-02    0.114E-01
DAV:  50    -0.332510263191E+01   -0.51077E-04   -0.57697E-07    96   0.634E-03    0.115E-01
DAV:  51    -0.332511496015E+01   -0.12328E-04   -0.31623E-08    96   0.173E-03    0.114E-01
DAV:  52    -0.332507780207E+01    0.37158E-04   -0.10276E-05    48   0.177E-02    0.104E-01
DAV:  53    -0.332515400020E+01   -0.76198E-04   -0.10493E-05    48   0.195E-02    0.776E-02
DAV:  54    -0.332523502977E+01   -0.81030E-04   -0.39537E-06    84   0.123E-02    0.446E-02
DAV:  55    -0.332529413461E+01   -0.59105E-04   -0.97530E-07    48   0.690E-03    0.299E-02
DAV:  56    -0.332532391363E+01   -0.29779E-04   -0.69468E-07    48   0.546E-03    0.286E-02
DAV:  57    -0.332531165721E+01    0.12256E-04   -0.12828E-06    48   0.569E-03    0.158E-02
DAV:  58    -0.332533949566E+01   -0.27838E-04   -0.11750E-06    48   0.497E-03    0.277E-02
DAV:  59    -0.332533467033E+01    0.48253E-05   -0.39758E-07    48   0.409E-03    0.279E-02
DAV:  60    -0.332533043244E+01    0.42379E-05   -0.33250E-07    72   0.305E-03    0.268E-02
DAV:  61    -0.332533500400E+01   -0.45716E-05   -0.12981E-07    72   0.242E-03    0.267E-02
DAV:  62    -0.332533440957E+01    0.59443E-06   -0.84888E-07    96   0.406E-03
   3 F= -.33256575E+01 E0= -.33228585E+01  d E =0.597584E+02  mag=     3.9423
