 vasp.5.4.4.18Apr17-6-g9f103f2a35 (build May 21 2019 18:55:53) complex          
  
 executed on           IFC19_impi date 2025.09.03  10:40:22
 running on   24 total cores
 distrk:  each k-point on   24 cores,    1 groups
 distr:  one band on NCORES_PER_BAND=   4 cores,    6 groups


--------------------------------------------------------------------------------------------------------


 INCAR:
 POTCAR:    PAW_PBE O_GW_new 19Mar2012            
 POTCAR:    PAW_PBE C_GW_new 19Mar2012            
 POTCAR:    PAW_PBE O_GW_new 19Mar2012            
   SHA256 =  c493eb4e480bc193c6922e0b8c73e7a108f48fca6e73afddd92a880a1c2b3374 O_
   COPYR  = (c) Copyright 19Mar2012 Georg Kresse                                
   COPYR  = This file is part of the software VASP. Any use, copying, and all ot
   COPYR  = If you do not have a valid VASP license, you may not use, copy or di
   VRHFIN =O: s2p4                                                              
   LEXCH  = PE                                                                  
   EATOM  =   432.3788 eV,   31.7789 Ry                                         
                                                                                
   TITEL  = PAW_PBE O_GW_new 19Mar2012                                          
   LULTRA =        F    use ultrasoft PP ?                                      
   IUNSCR =        1    unscreen: 0-lin 1-nonlin 2-no                           
   RPACOR =    0.800    partial core radius                                     
   POMASS =   16.000; ZVAL   =    6.000    mass and valenz                      
   RCORE  =    1.600    outmost cutoff radius                                   
   RWIGS  =    1.600; RWIGS  =    0.847    wigner-seitz radius (au A)           
   ENMAX  =  434.431; ENMIN  =  325.824 eV                                      
   ICORE  =        3    local potential                                         
   LCOR   =        T    correct aug charges                                     
   LPAW   =        T    paw PP                                                  
   EAUG   = 1139.609                                                            
   DEXC   =    0.000                                                            
   RMAX   =    1.629    core radius for proj-oper                               
   RAUG   =    1.300    factor for augmentation sphere                          
   RDEP   =    1.652    radius for radial grids                                 
   RDEPT  =    1.200    core radius for aug-charge                              
                                                                                
   Atomic configuration                                                         
    5 entries                                                                   
     n  l   j            E        occ.                                          
     1  0  0.50      -514.6923   2.0000                                         
     2  0  0.50       -23.9615   2.0000                                         
     2  1  0.50        -9.0305   4.0000                                         
     3  2  1.50        -9.5241   0.0000                                         
     4  3  2.50        -9.5241   0.0000                                         
   Description                                                                  
     l       E           TYP  RCUT    TYP  RCUT                                 
     0    -23.9615316     23  1.150                                             
     0    -25.3221142     23  1.150                                             
     0    244.9048680     23  1.300                                             
     1     -9.0304908     23  1.500                                             
     1     -6.9258396     23  1.500                                             
     1    122.4524340     23  1.500                                             
     2     13.6058260     23  1.500                                             
     2    190.4815640     23  1.600                                             
     3     54.4233040     23  1.400                                             
  local pseudopotential read in
  partial core-charges read in
  partial kinetic energy density read in
  kinetic energy density of atom read in
  atomic valenz-charges read in
  non local Contribution for L=           0  read in
    real space projection operators read in
  non local Contribution for L=           0  read in
    real space projection operators read in
  non local Contribution for L=           0  read in
    real space projection operators read in
  non local Contribution for L=           1  read in
    real space projection operators read in
  non local Contribution for L=           1  read in
    real space projection operators read in
  non local Contribution for L=           1  read in
    real space projection operators read in
  non local Contribution for L=           2  read in
    real space projection operators read in
  non local Contribution for L=           2  read in
    real space projection operators read in
    PAW grid and wavefunctions read in
 
   number of l-projection  operators is LMAX  =           8
   number of lm-projection operators is LMMAX =          22
 
 POTCAR:    PAW_PBE C_GW_new 19Mar2012            
   SHA256 =  fd3f4f69ac51e962ca076bfc50bb68de54373009f6c2495f58fe5f585428a9ad C_
   COPYR  = (c) Copyright 19Mar2012 Georg Kresse                                
   COPYR  = This file is part of the software VASP. Any use, copying, and all ot
   COPYR  = If you do not have a valid VASP license, you may not use, copy or di
   VRHFIN =C: s2p2                                                              
   LEXCH  = PE                                                                  
   EATOM  =   147.1560 eV,   10.8157 Ry                                         
                                                                                
   TITEL  = PAW_PBE C_GW_new 19Mar2012                                          
   LULTRA =        F    use ultrasoft PP ?                                      
   IUNSCR =        1    unscreen: 0-lin 1-nonlin 2-no                           
   RPACOR =    0.800    partial core radius                                     
   POMASS =   12.011; ZVAL   =    4.000    mass and valenz                      
   RCORE  =    1.600    outmost cutoff radius                                   
   RWIGS  =    1.600; RWIGS  =    0.847    wigner-seitz radius (au A)           
   ENMAX  =  413.992; ENMIN  =  310.494 eV                                      
   ICORE  =        3    local potential                                         
   LCOR   =        T    correct aug charges                                     
   LPAW   =        T    paw PP                                                  
   EAUG   = 1213.930                                                            
   DEXC   =    0.000                                                            
   RMAX   =    1.630    core radius for proj-oper                               
   RAUG   =    1.300    factor for augmentation sphere                          
   RDEP   =    1.601    radius for radial grids                                 
   RDEPT  =    1.200    core radius for aug-charge                              
                                                                                
   Atomic configuration                                                         
    5 entries                                                                   
     n  l   j            E        occ.                                          
     1  0  0.50      -273.3789   2.0000                                         
     2  0  0.50       -13.7508   2.0000                                         
     2  1  0.50        -5.2854   2.0000                                         
     3  2  1.50        -5.4423   0.0000                                         
     4  3  2.50        -5.4423   0.0000                                         
   Description                                                                  
     l       E           TYP  RCUT    TYP  RCUT                                 
     0    -13.7508457     23  1.200                                             
     0     -7.5219285     23  1.200                                             
     0    272.1165200     23  1.300                                             
     1     -5.2854382     23  1.500                                             
     1    108.8466080     23  1.500                                             
     2     27.2116520     23  1.500                                             
     2    190.4815640     23  1.600                                             
     3     54.4233040     23  1.400                                             
  local pseudopotential read in
  partial core-charges read in
  partial kinetic energy density read in
  kinetic energy density of atom read in
  atomic valenz-charges read in
  non local Contribution for L=           0  read in
    real space projection operators read in
  non local Contribution for L=           0  read in
    real space projection operators read in
  non local Contribution for L=           0  read in
    real space projection operators read in
  non local Contribution for L=           1  read in
    real space projection operators read in
  non local Contribution for L=           1  read in
    real space projection operators read in
  non local Contribution for L=           2  read in
    real space projection operators read in
  non local Contribution for L=           2  read in
    real space projection operators read in
    PAW grid and wavefunctions read in
 
   number of l-projection  operators is LMAX  =           7
   number of lm-projection operators is LMMAX =          19
 

 ----------------------------------------------------------------------------- 
|                                                                             |
|  ADVICE TO THIS USER RUNNING 'VASP/VAMP'   (HEAR YOUR MASTER'S VOICE ...):  |
|                                                                             |
|      You have a (more or less) 'small supercell' and for smaller cells      |
|      it is recommended  to use the reciprocal-space projection scheme!      |
|      The real space optimization is not  efficient for small cells and it   |
|      is also less accurate ...                                              |
|      Therefore set LREAL=.FALSE. in the  INCAR file                         |
|                                                                             |
 ----------------------------------------------------------------------------- 

 Optimization of the real space projectors (new method)

 maximal supplied QI-value         = 23.62
 optimisation between [QCUT,QGAM] = [ 11.57, 23.15] = [ 37.52,150.06] Ry 
 Optimized for a Real-space Cutoff    1.53 Angstroem

   l    n(q)    QCUT    max X(q) W(low)/X(q) W(high)/X(q)  e(spline) 
   0     11    11.575   116.464    0.19E-03    0.50E-03    0.68E-05
   0     11    11.575   116.329    0.18E-03    0.48E-03    0.66E-05
   0     11    11.575     0.942    0.91E-04    0.25E-03    0.30E-05
   1     10    11.575    68.203    0.23E-03    0.52E-03    0.69E-05
   1     10    11.575    60.250    0.22E-03    0.51E-03    0.68E-05
   1     10    11.575     2.381    0.21E-03    0.47E-03    0.62E-05
   2     10    11.575     2.237    0.20E-04    0.44E-04    0.41E-06
   2     10    11.575     2.486    0.52E-04    0.84E-04    0.58E-06
 Optimization of the real space projectors (new method)

 maximal supplied QI-value         = 23.62
 optimisation between [QCUT,QGAM] = [ 11.57, 23.15] = [ 37.52,150.06] Ry 
 Optimized for a Real-space Cutoff    1.40 Angstroem

   l    n(q)    QCUT    max X(q) W(low)/X(q) W(high)/X(q)  e(spline) 
   0     10    11.575   214.472    0.12E-03    0.51E-03    0.36E-05
   0     10    11.575   163.224    0.12E-03    0.51E-03    0.36E-05
   0     10    11.575     0.672    0.22E-03    0.83E-03    0.56E-05
   1      9    11.575     2.978    0.13E-04    0.16E-04    0.12E-06
   1      9    11.575     2.423    0.91E-04    0.11E-03    0.33E-06
   2      9    11.575     2.026    0.29E-04    0.65E-04    0.23E-06
   2      9    11.575     2.119    0.11E-03    0.87E-04    0.33E-06
  PAW_PBE O_GW_new 19Mar2012            :
 energy of atom  1       EATOM= -432.3788
 kinetic energy error for atom=    0.0246 (will be added to EATOM!!)
  PAW_PBE C_GW_new 19Mar2012            :
 energy of atom  2       EATOM= -147.1560
 kinetic energy error for atom=    0.0071 (will be added to EATOM!!)
 
 
 POSCAR: C  O                                    
  positions in cartesian coordinates
  No initial velocities read in
 exchange correlation table for  LEXCH =        8
   RHO(1)=    0.500       N(1)  =     2000
   RHO(2)=  100.500       N(2)  =     4000

 VTST: version 3.2, (02/03/18)

 CHAIN: initializing optimizer
 
 OPT: Using VASP Conjugate-Gradient optimizer
 CHAIN: Read ICHAIN            0
 
 POSCAR: C  O                                    
  positions in cartesian coordinates
  No initial velocities read in
 


--------------------------------------------------------------------------------------------------------


 ion  position               nearest neighbor table
   1  0.998  0.196  0.230-   2 1.14
   2  0.019  0.222  0.212-   1 1.14
 

IMPORTANT INFORMATION: All symmetrisations will be switched off!
NOSYMM: (Re-)initialisation of all symmetry stuff for point group C_1.

 
 
 KPOINTS: mof                                     

Automatic generation of k-mesh.
Space group operators:
 irot       det(A)        alpha          n_x          n_y          n_z        tau_x        tau_y        tau_z
    1     1.000000     0.000000     1.000000     0.000000     0.000000     0.000000     0.000000     0.000000
 
 Subroutine IBZKPT returns following result:
 ===========================================
 
 Found      1 irreducible k-points:
 
 Following reciprocal coordinates:
            Coordinates               Weight
  0.000000  0.000000  0.000000      1.000000
 
 Following cartesian coordinates:
            Coordinates               Weight
  0.000000  0.000000  0.000000      1.000000
 


--------------------------------------------------------------------------------------------------------




 Dimension of arrays:
   k-points           NKPTS =      1   k-points in BZ     NKDIM =      1   number of bands    NBANDS=     12
   number of dos      NEDOS =    301   number of ions     NIONS =      2
   non local maximal  LDIM  =      8   non local SUM 2l+1 LMDIM =     22
   total plane-waves  NPLWV = ******
   max r-space proj   IRMAX =   6341   max aug-charges    IRDMAX=   4656
   dimension x,y,z NGX =   224 NGY =  224 NGZ =  224
   dimension x,y,z NGXF=   448 NGYF=  448 NGZF=  448
   support grid    NGXF=   448 NGYF=  448 NGZF=  448
   ions per type =               1   1
   NGX,Y,Z   is equivalent  to a cutoff of  12.41, 12.41, 12.41 a.u.
   NGXF,Y,Z  is equivalent  to a cutoff of  24.83, 24.83, 24.83 a.u.

 SYSTEM =  Co–organic framework                  
 POSCAR =  C  O                                    

 Startparameter for this run:
   NWRITE =      2    write-flag & timer
   PREC   = accura    normal or accurate (medium, high low for compatibility)
   ISTART =      0    job   : 0-new  1-cont  2-samecut
   ICHARG =      2    charge: 1-file 2-atom 10-const
   ISPIN  =      2    spin polarized calculation?
   LNONCOLLINEAR =      F non collinear calculations
   LSORBIT =      F    spin-orbit coupling
   INIWAV =      1    electr: 0-lowe 1-rand  2-diag
   LASPH  =      F    aspherical Exc in radial PAW
   METAGGA=      F    non-selfconsistent MetaGGA calc.

 Electronic Relaxation 1
   ENCUT  =  520.0 eV  38.22 Ry    6.18 a.u.  55.78 55.78 55.78*2*pi/ulx,y,z
   ENINI  =  520.0     initial cutoff
   ENAUG  = 1213.9 eV  augmentation charge cutoff
   NELM   =    100;   NELMIN=  5; NELMDL=  0     # of ELM steps 
   EDIFF  = 0.1E-05   stopping-criterion for ELM
   LREAL  =      T    real-space projection
   NLSPLINE    = F    spline interpolate recip. space projectors
   LCOMPAT=      F    compatible to vasp.4.4
   GGA_COMPAT  = T    GGA compatible to vasp.4.4-vasp.4.6
   LMAXPAW     = -100 max onsite density
   LMAXMIX     =    2 max onsite mixed and CHGCAR
   VOSKOWN=      0    Vosko Wilk Nusair interpolation
   ROPT   =   -0.00025  -0.00025
 Ionic relaxation
   EDIFFG = -.5E-02   stopping-criterion for IOM
   NSW    =   1000    number of steps for IOM
   NBLOCK =      1;   KBLOCK =   1000    inner block; outer block 
   IBRION =      2    ionic relax: 0-MD 1-quasi-New 2-CG
   NFREE  =      1    steps in history (QN), initial steepest desc. (CG)
   ISIF   =      2    stress and relaxation
   IWAVPR =     11    prediction:  0-non 1-charg 2-wave 3-comb
   ISYM   =      0    0-nonsym 1-usesym 2-fastsym
   LCORR  =      T    Harris-Foulkes like correction to forces

   POTIM  = 0.5000    time-step for ionic-motion
   TEIN   =    0.0    initial temperature
   TEBEG  =    0.0;   TEEND  =   0.0 temperature during run
   SMASS  =  -3.00    Nose mass-parameter (am)
   estimated Nose-frequenzy (Omega)   =  0.10E-29 period in steps =****** mass=  -0.206E-25a.u.
   SCALEE = 1.0000    scale energy and forces
   NPACO  =    256;   APACO  = 16.0  distance and # of slots for P.C.
   PSTRESS=    0.0 pullay stress

  Mass of Ions in am
   POMASS =  16.00 12.01
  Ionic Valenz
   ZVAL   =   6.00  4.00
  Atomic Wigner-Seitz radii
   RWIGS  =  -1.00 -1.00
  virtual crystal weights 
   VCA    =   1.00  1.00
   NELECT =      10.0000    total number of electrons
   NUPDOWN=      -1.0000    fix difference up-down

 DOS related values:
   EMIN   =  10.00;   EMAX   =-10.00  energy-range for DOS
   EFERMI =   0.00
   ISMEAR =     0;   SIGMA  =   0.05  broadening in eV -4-tet -1-fermi 0-gaus

 Electronic relaxation 2 (details)
   IALGO  =     38    algorithm
   LDIAG  =      T    sub-space diagonalisation (order eigenvalues)
   LSUBROT=      F    optimize rotation matrix (better conditioning)
   TURBO    =      0    0=normal 1=particle mesh
   IRESTART =      0    0=no restart 2=restart with 2 vectors
   NREBOOT  =      0    no. of reboots
   NMIN     =      0    reboot dimension
   EREF     =   0.00    reference energy to select bands
   IMIX   =      4    mixing-type and parameters
     AMIX     =   0.40;   BMIX     =  1.00
     AMIX_MAG =   1.60;   BMIX_MAG =  1.00
     AMIN     =   0.10
     WC   =   100.;   INIMIX=   1;  MIXPRE=   1;  MAXMIX= -45

 Intra band minimization:
   WEIMIN = 0.0010     energy-eigenvalue tresh-hold
   EBREAK =  0.21E-07  absolut break condition
   DEPER  =   0.30     relativ break condition  

   TIME   =   0.40     timestep for ELM

  volume/ion in A,a.u.               =   13500.00     91102.50
  Fermi-wavevector in a.u.,A,eV,Ry     =   0.117567  0.222170  0.188061  0.013822
  Thomas-Fermi vector in A             =   0.731135
 
 Write flags
   LWAVE        =      F    write WAVECAR
   LDOWNSAMPLE  =      F    k-point downsampling of WAVECAR
   LCHARG       =      T    write CHGCAR
   LVTOT        =      F    write LOCPOT, total local potential
   LVHAR        =      F    write LOCPOT, Hartree potential only
   LELF         =      F    write electronic localiz. function (ELF)
   LORBIT       =      0    0 simple, 1 ext, 2 COOP (PROOUT), +10 PAW based schemes


 Dipole corrections
   LMONO  =      F    monopole corrections only (constant potential shift)
   LDIPOL =      F    correct potential (dipole corrections)
   IDIPOL =      0    1-x, 2-y, 3-z, 4-all directions 
   EPSILON=  1.0000000 bulk dielectric constant

 Exchange correlation treatment:
   GGA     =    --    GGA type
   LEXCH   =     8    internal setting for exchange type
   VOSKOWN=      0    Vosko Wilk Nusair interpolation
   LHFCALC =     F    Hartree Fock is set to
   LHFONE  =     F    Hartree Fock one center treatment
   AEXX    =    0.0000 exact exchange contribution

 Linear response parameters
   LEPSILON=     F    determine dielectric tensor
   LRPA    =     F    only Hartree local field effects (RPA)
   LNABLA  =     F    use nabla operator in PAW spheres
   LVEL    =     F    velocity operator in full k-point grid
   LINTERFAST=   F  fast interpolation
   KINTER  =     0    interpolate to denser k-point grid
   CSHIFT  =0.1000    complex shift for real part using Kramers Kronig
   OMEGAMAX=  -1.0    maximum frequency
   DEG_THRESHOLD= 0.2000000E-02 threshold for treating states as degnerate
   RTIME   =   -0.100 relaxation time in fs
  (WPLASMAI=    0.000 imaginary part of plasma frequency in eV, 0.658/RTIME)
   DFIELD  = 0.0000000 0.0000000 0.0000000 field for delta impulse in time
 
 Orbital magnetization related:
   ORBITALMAG=     F  switch on orbital magnetization
   LCHIMAG   =     F  perturbation theory with respect to B field
   DQ        =  0.001000  dq finite difference perturbation B field
   LLRAUG    =     F  two centre corrections for induced B field



--------------------------------------------------------------------------------------------------------


 conjugate gradient relaxation of ions
 charge density and potential will be updated during run
 spin polarized calculation
 Variant of blocked Davidson
 Davidson routine will perform the subspace rotation
 perform sub-space diagonalisation
    after iterative eigenvector-optimisation
 modified Broyden-mixing scheme, WC =      100.0
 initial mixing is a Kerker type mixing with AMIX =  0.4000 and BMIX =      1.0000
 Hartree-type preconditioning will be used
 using additional bands            7
 real space projection scheme for non local part
 use partial core corrections
 calculate Harris-corrections to forces 
   (improved forces if not selfconsistent)
 use gradient corrections 
 use of overlap-Matrix (Vanderbilt PP)
 Gauss-broadening in eV      SIGMA  =   0.05


--------------------------------------------------------------------------------------------------------


  energy-cutoff  :      520.00
  volume of cell :    27000.00
      direct lattice vectors                 reciprocal lattice vectors
    30.000000000  0.000000000  0.000000000     0.033333333  0.000000000  0.000000000
     0.000000000 30.000000000  0.000000000     0.000000000  0.033333333  0.000000000
     0.000000000  0.000000000 30.000000000     0.000000000  0.000000000  0.033333333

  length of vectors
    30.000000000 30.000000000 30.000000000     0.033333333  0.033333333  0.033333333


 
 k-points in units of 2pi/SCALE and weight: mof                                     
   0.00000000  0.00000000  0.00000000       1.000
 
 k-points in reciprocal lattice and weights: mof                                     
   0.00000000  0.00000000  0.00000000       1.000
 
 position of ions in fractional coordinates (direct lattice) 
   0.99778844  0.19587215  0.22964491
   0.01911335  0.22189780  0.21163899
 
 position of ions in cartesian coordinates  (Angst):
  29.93365329  5.87616453  6.88934724
   0.57340051  6.65693387  6.34916983
 


--------------------------------------------------------------------------------------------------------


 k-point  1 :   0.0000 0.0000 0.0000  plane waves:  727055

 maximum and minimum number of plane-waves per node :    181799   181736

 maximum number of plane-waves:    727055
 maximum index in each direction: 
   IXMAX=   55   IYMAX=   55   IZMAX=   55
   IXMIN=  -55   IYMIN=  -55   IZMIN=  -55


 real space projection operators:
  total allocation   :       1743.31 KBytes
  max/ min on nodes  :        440.58        432.27


 parallel 3D FFT for wavefunctions:
    minimum data exchange during FFTs selected (reduces bandwidth)
 parallel 3D FFT for charge:
    minimum data exchange during FFTs selected (reduces bandwidth)


 total amount of memory used by VASP MPI-rank0   784906. kBytes
=======================================================================

   base      :      30000. kBytes
   nonlr-proj:        748. kBytes
   fftplans  :     211127. kBytes
   grid      :     531349. kBytes
   one-center:         46. kBytes
   wavefun   :      11636. kBytes
 
     INWAV:  cpu time    0.0000: real time    0.0001
 Broyden mixing: mesh for mixing (old mesh)
   NGX =111   NGY =111   NGZ =111
  (NGX  =448   NGY  =448   NGZ  =448)
  gives a total of ****** points

 initial charge density was supplied:
 charge density of overlapping atoms calculated
 number of electron      10.0000000 magnetization       0.0000000
 keeping initial charge density in first step


--------------------------------------------------------------------------------------------------------


 Maximum index for non-local projection operator         1508
 Maximum index for augmentation-charges          317 (set IRDMAX)


--------------------------------------------------------------------------------------------------------


 First call to EWALD:  gamma=   0.059
 Maximum number of real-space cells 3x 3x 3
 Maximum number of reciprocal cells 3x 3x 3

    FEWALD:  cpu time    0.0020: real time    0.0022


--------------------------------------- Iteration      1(   1)  ---------------------------------------


    POTLOK:  cpu time    8.7247: real time    8.7526
    SETDIJ:  cpu time    0.0570: real time    0.0584
     EDDAV:  cpu time    8.0188: real time    8.0178
       DOS:  cpu time    0.0010: real time    0.0004
    --------------------------------------------
      LOOP:  cpu time   16.8014: real time   16.8294

 eigenvalue-minimisations  :    96
 total energy-change (2. order) : 0.8980550E+02  (-0.1438146E+03)
 number of electron      10.0000000 magnetization       0.0000000
 augmentation part       10.0000000 magnetization       0.0000000

 Free energy of the ion-electron system (eV)
  ---------------------------------------------------
  alpha Z        PSCENC =         0.00563328
  Ewald energy   TEWEN  =       233.81155575
  -Hartree energ DENC   =      -694.39971554
  -exchange      EXHF   =         0.00000000
  -V(xc)+E(xc)   XCENC  =        31.52082031
  PAW double counting   =       463.69512993     -457.43959568
  entropy T*S    EENTRO =        -0.03727139
  eigenvalues    EBANDS =       -66.85418021
  atomic energy  EATOM  =       579.50312721
  Solvation  Ediel_sol  =         0.00000000
  ---------------------------------------------------
  free energy    TOTEN  =        89.80550365 eV

  energy without entropy =       89.84277505  energy(sigma->0) =       89.82413935


--------------------------------------------------------------------------------------------------------




--------------------------------------- Iteration      1(   2)  ---------------------------------------


     EDDAV:  cpu time    7.9978: real time    8.0024
       DOS:  cpu time    0.0010: real time    0.0005
    --------------------------------------------
      LOOP:  cpu time    7.9988: real time    8.0029

 eigenvalue-minimisations  :    96
 total energy-change (2. order) :-0.8336870E+02  (-0.7765178E+02)
 number of electron      10.0000000 magnetization       0.0000000
 augmentation part       10.0000000 magnetization       0.0000000

 Free energy of the ion-electron system (eV)
  ---------------------------------------------------
  alpha Z        PSCENC =         0.00563328
  Ewald energy   TEWEN  =       233.81155575
  -Hartree energ DENC   =      -694.39971554
  -exchange      EXHF   =         0.00000000
  -V(xc)+E(xc)   XCENC  =        31.52082031
  PAW double counting   =       463.69512993     -457.43959568
  entropy T*S    EENTRO =        -0.00000000
  eigenvalues    EBANDS =      -150.26015424
  atomic energy  EATOM  =       579.50312721
  Solvation  Ediel_sol  =         0.00000000
  ---------------------------------------------------
  free energy    TOTEN  =         6.43680101 eV

  energy without entropy =        6.43680101  energy(sigma->0) =        6.43680101


--------------------------------------------------------------------------------------------------------




--------------------------------------- Iteration      1(   3)  ---------------------------------------


     EDDAV:  cpu time    4.5943: real time    4.5970
       DOS:  cpu time    0.0010: real time    0.0003
    --------------------------------------------
      LOOP:  cpu time    4.5953: real time    4.5975

 eigenvalue-minimisations  :    48
 total energy-change (2. order) :-0.2091232E+02  (-0.2091232E+02)
 number of electron      10.0000000 magnetization       0.0000000
 augmentation part       10.0000000 magnetization       0.0000000

 Free energy of the ion-electron system (eV)
  ---------------------------------------------------
  alpha Z        PSCENC =         0.00563328
  Ewald energy   TEWEN  =       233.81155575
  -Hartree energ DENC   =      -694.39971554
  -exchange      EXHF   =         0.00000000
  -V(xc)+E(xc)   XCENC  =        31.52082031
  PAW double counting   =       463.69512993     -457.43959568
  entropy T*S    EENTRO =        -0.00000000
  eigenvalues    EBANDS =      -171.17247853
  atomic energy  EATOM  =       579.50312721
  Solvation  Ediel_sol  =         0.00000000
  ---------------------------------------------------
  free energy    TOTEN  =       -14.47552327 eV

  energy without entropy =      -14.47552327  energy(sigma->0) =      -14.47552327


--------------------------------------------------------------------------------------------------------




--------------------------------------- Iteration      1(   4)  ---------------------------------------


     EDDAV:  cpu time    7.9948: real time    7.9962
       DOS:  cpu time    0.0000: real time    0.0005
    --------------------------------------------
      LOOP:  cpu time    7.9948: real time    7.9967

 eigenvalue-minimisations  :    96
 total energy-change (2. order) :-0.1298474E+01  (-0.1298474E+01)
 number of electron      10.0000000 magnetization       0.0000000
 augmentation part       10.0000000 magnetization       0.0000000

 Free energy of the ion-electron system (eV)
  ---------------------------------------------------
  alpha Z        PSCENC =         0.00563328
  Ewald energy   TEWEN  =       233.81155575
  -Hartree energ DENC   =      -694.39971554
  -exchange      EXHF   =         0.00000000
  -V(xc)+E(xc)   XCENC  =        31.52082031
  PAW double counting   =       463.69512993     -457.43959568
  entropy T*S    EENTRO =        -0.00000000
  eigenvalues    EBANDS =      -172.47095273
  atomic energy  EATOM  =       579.50312721
  Solvation  Ediel_sol  =         0.00000000
  ---------------------------------------------------
  free energy    TOTEN  =       -15.77399747 eV

  energy without entropy =      -15.77399747  energy(sigma->0) =      -15.77399747


--------------------------------------------------------------------------------------------------------




--------------------------------------- Iteration      1(   5)  ---------------------------------------


     EDDAV:  cpu time    6.2880: real time    6.2891
       DOS:  cpu time    0.0010: real time    0.0006
    CHARGE:  cpu time    1.0778: real time    1.0776
    MIXING:  cpu time    0.1480: real time    0.1483
    --------------------------------------------
      LOOP:  cpu time    7.5149: real time    7.5157

 eigenvalue-minimisations  :    72
 total energy-change (2. order) :-0.3256416E-02  (-0.3256415E-02)
 number of electron      10.0000007 magnetization      -0.0000000
 augmentation part        0.6202691 magnetization       0.0000136

 Broyden mixing:
  rms(total) = 0.17852E+01    rms(broyden)= 0.17850E+01
  rms(prec ) = 0.17913E+01
  weight for this iteration     100.00

 Free energy of the ion-electron system (eV)
  ---------------------------------------------------
  alpha Z        PSCENC =         0.00563328
  Ewald energy   TEWEN  =       233.81155575
  -Hartree energ DENC   =      -694.39971554
  -exchange      EXHF   =         0.00000000
  -V(xc)+E(xc)   XCENC  =        31.52082031
  PAW double counting   =       463.69512993     -457.43959568
  entropy T*S    EENTRO =        -0.00000000
  eigenvalues    EBANDS =      -172.47420914
  atomic energy  EATOM  =       579.50312721
  Solvation  Ediel_sol  =         0.00000000
  ---------------------------------------------------
  free energy    TOTEN  =       -15.77725389 eV

  energy without entropy =      -15.77725389  energy(sigma->0) =      -15.77725389


--------------------------------------------------------------------------------------------------------




--------------------------------------- Iteration      1(   6)  ---------------------------------------


    POTLOK:  cpu time    8.8157: real time    8.8169
    SETDIJ:  cpu time    0.0610: real time    0.0611
     EDDAV:  cpu time    7.9838: real time    7.9830
       DOS:  cpu time    0.0000: real time    0.0012
    CHARGE:  cpu time    1.0708: real time    1.0704
    MIXING:  cpu time    0.1540: real time    0.1542
    --------------------------------------------
      LOOP:  cpu time   18.0862: real time   18.0868

 eigenvalue-minimisations  :    96
 total energy-change (2. order) : 0.6806730E+00  (-0.3592378E+00)
 number of electron      10.0000006 magnetization      -0.0000000
 augmentation part        0.5338579 magnetization      -0.0000772

 Broyden mixing:
  rms(total) = 0.10929E+01    rms(broyden)= 0.10929E+01
  rms(prec ) = 0.10952E+01
  weight for this iteration     100.00

 eigenvalues of (default mixing * dielectric matrix)
  average eigenvalue GAMMA=   1.9233
  1.9233

 Free energy of the ion-electron system (eV)
  ---------------------------------------------------
  alpha Z        PSCENC =         0.00563328
  Ewald energy   TEWEN  =       233.81155575
  -Hartree energ DENC   =      -708.73008192
  -exchange      EXHF   =         0.00000000
  -V(xc)+E(xc)   XCENC  =        32.33366290
  PAW double counting   =       657.98546576     -651.81499244
  entropy T*S    EENTRO =        -0.00000000
  eigenvalues    EBANDS =      -158.19095145
  atomic energy  EATOM  =       579.50312721
  Solvation  Ediel_sol  =         0.00000000
  ---------------------------------------------------
  free energy    TOTEN  =       -15.09658092 eV

  energy without entropy =      -15.09658092  energy(sigma->0) =      -15.09658092


--------------------------------------------------------------------------------------------------------




--------------------------------------- Iteration      1(   7)  ---------------------------------------


    POTLOK:  cpu time    8.8147: real time    8.8155
    SETDIJ:  cpu time    0.0610: real time    0.0608
     EDDAV:  cpu time    7.9928: real time    7.9915
       DOS:  cpu time    0.0010: real time    0.0007
    CHARGE:  cpu time    1.0658: real time    1.0663
    MIXING:  cpu time    0.1610: real time    0.1608
    --------------------------------------------
      LOOP:  cpu time   18.0963: real time   18.0956

 eigenvalue-minimisations  :    96
 total energy-change (2. order) : 0.9126296E-01  (-0.2276737E+00)
 number of electron      10.0000006 magnetization      -0.0000000
 augmentation part        0.5746655 magnetization      -0.0000470

 Broyden mixing:
  rms(total) = 0.35684E+00    rms(broyden)= 0.35681E+00
  rms(prec ) = 0.36231E+00
  weight for this iteration     100.00

 eigenvalues of (default mixing * dielectric matrix)
  average eigenvalue GAMMA=   1.6516
  0.7526  2.5505

 Free energy of the ion-electron system (eV)
  ---------------------------------------------------
  alpha Z        PSCENC =         0.00563328
  Ewald energy   TEWEN  =       233.81155575
  -Hartree energ DENC   =      -712.07298963
  -exchange      EXHF   =         0.00000000
  -V(xc)+E(xc)   XCENC  =        32.56118084
  PAW double counting   =       926.16928254     -920.13502224
  entropy T*S    EENTRO =        -0.00000000
  eigenvalues    EBANDS =      -154.84808569
  atomic energy  EATOM  =       579.50312721
  Solvation  Ediel_sol  =         0.00000000
  ---------------------------------------------------
  free energy    TOTEN  =       -15.00531796 eV

  energy without entropy =      -15.00531796  energy(sigma->0) =      -15.00531796


--------------------------------------------------------------------------------------------------------




--------------------------------------- Iteration      1(   8)  ---------------------------------------


    POTLOK:  cpu time    8.8147: real time    8.8164
    SETDIJ:  cpu time    0.0600: real time    0.0600
     EDDAV:  cpu time    7.9618: real time    7.9606
       DOS:  cpu time    0.0010: real time    0.0007
    CHARGE:  cpu time    1.0648: real time    1.0647
    MIXING:  cpu time    0.1660: real time    0.1665
    --------------------------------------------
      LOOP:  cpu time   18.0683: real time   18.0691

 eigenvalue-minimisations  :    96
 total energy-change (2. order) : 0.9044116E-01  (-0.6649316E-01)
 number of electron      10.0000006 magnetization      -0.0000000
 augmentation part        0.5411861 magnetization      -0.0000071

 Broyden mixing:
  rms(total) = 0.49088E-01    rms(broyden)= 0.48996E-01
  rms(prec ) = 0.50604E-01
  weight for this iteration     100.00

 eigenvalues of (default mixing * dielectric matrix)
  average eigenvalue GAMMA=   1.6007
  2.5473  1.5173  0.7374

 Free energy of the ion-electron system (eV)
  ---------------------------------------------------
  alpha Z        PSCENC =         0.00563328
  Ewald energy   TEWEN  =       233.81155575
  -Hartree energ DENC   =      -716.30568662
  -exchange      EXHF   =         0.00000000
  -V(xc)+E(xc)   XCENC  =        32.80951762
  PAW double counting   =      1027.07658884    -1021.08021865
  entropy T*S    EENTRO =        -0.00000000
  eigenvalues    EBANDS =      -150.73539422
  atomic energy  EATOM  =       579.50312721
  Solvation  Ediel_sol  =         0.00000000
  ---------------------------------------------------
  free energy    TOTEN  =       -14.91487680 eV

  energy without entropy =      -14.91487680  energy(sigma->0) =      -14.91487680


--------------------------------------------------------------------------------------------------------




--------------------------------------- Iteration      1(   9)  ---------------------------------------


    POTLOK:  cpu time    8.8127: real time    8.8146
    SETDIJ:  cpu time    0.0620: real time    0.0629
     EDDAV:  cpu time    6.2790: real time    6.2772
       DOS:  cpu time    0.0010: real time    0.0008
    CHARGE:  cpu time    1.0638: real time    1.0639
    MIXING:  cpu time    0.1740: real time    0.1741
    --------------------------------------------
      LOOP:  cpu time   16.3915: real time   16.3935

 eigenvalue-minimisations  :    72
 total energy-change (2. order) : 0.1625627E-02  (-0.4424531E-02)
 number of electron      10.0000006 magnetization      -0.0000000
 augmentation part        0.5411733 magnetization       0.0000035

 Broyden mixing:
  rms(total) = 0.19528E-01    rms(broyden)= 0.19512E-01
  rms(prec ) = 0.20234E-01
  weight for this iteration     100.00

 eigenvalues of (default mixing * dielectric matrix)
  average eigenvalue GAMMA=   1.5123
  2.5844  0.7645  1.0600  1.6403

 Free energy of the ion-electron system (eV)
  ---------------------------------------------------
  alpha Z        PSCENC =         0.00563328
  Ewald energy   TEWEN  =       233.81155575
  -Hartree energ DENC   =      -715.08033203
  -exchange      EXHF   =         0.00000000
  -V(xc)+E(xc)   XCENC  =        32.73683200
  PAW double counting   =      1021.59165877    -1015.58130519
  entropy T*S    EENTRO =        -0.00000000
  eigenvalues    EBANDS =      -151.90042095
  atomic energy  EATOM  =       579.50312721
  Solvation  Ediel_sol  =         0.00000000
  ---------------------------------------------------
  free energy    TOTEN  =       -14.91325117 eV

  energy without entropy =      -14.91325117  energy(sigma->0) =      -14.91325117


--------------------------------------------------------------------------------------------------------




--------------------------------------- Iteration      1(  10)  ---------------------------------------


    POTLOK:  cpu time    8.8087: real time    8.8114
    SETDIJ:  cpu time    0.0600: real time    0.0597
     EDDAV:  cpu time    7.9758: real time    7.9732
       DOS:  cpu time    0.0010: real time    0.0007
    CHARGE:  cpu time    1.0648: real time    1.0652
    MIXING:  cpu time    0.1860: real time    0.1857
    --------------------------------------------
      LOOP:  cpu time   18.0962: real time   18.0958

 eigenvalue-minimisations  :    96
 total energy-change (2. order) :-0.6672096E-03  (-0.5107842E-03)
 number of electron      10.0000006 magnetization      -0.0000000
 augmentation part        0.5441376 magnetization       0.0000025

 Broyden mixing:
  rms(total) = 0.58154E-02    rms(broyden)= 0.58100E-02
  rms(prec ) = 0.63566E-02
  weight for this iteration     100.00

 eigenvalues of (default mixing * dielectric matrix)
  average eigenvalue GAMMA=   1.4777
  2.5234  1.8305  0.7782  0.9385  1.3180

 Free energy of the ion-electron system (eV)
  ---------------------------------------------------
  alpha Z        PSCENC =         0.00563328
  Ewald energy   TEWEN  =       233.81155575
  -Hartree energ DENC   =      -714.98487788
  -exchange      EXHF   =         0.00000000
  -V(xc)+E(xc)   XCENC  =        32.72743406
  PAW double counting   =      1022.04925970    -1016.03719420
  entropy T*S    EENTRO =        -0.00000000
  eigenvalues    EBANDS =      -151.98885629
  atomic energy  EATOM  =       579.50312721
  Solvation  Ediel_sol  =         0.00000000
  ---------------------------------------------------
  free energy    TOTEN  =       -14.91391838 eV

  energy without entropy =      -14.91391838  energy(sigma->0) =      -14.91391838


--------------------------------------------------------------------------------------------------------




--------------------------------------- Iteration      1(  11)  ---------------------------------------


    POTLOK:  cpu time    8.8117: real time    8.8124
    SETDIJ:  cpu time    0.0590: real time    0.0598
     EDDAV:  cpu time    6.2820: real time    6.2822
       DOS:  cpu time    0.0010: real time    0.0007
    CHARGE:  cpu time    1.0638: real time    1.0648
    MIXING:  cpu time    0.1920: real time    0.1912
    --------------------------------------------
      LOOP:  cpu time   16.4105: real time   16.4111

 eigenvalue-minimisations  :    72
 total energy-change (2. order) :-0.9528609E-03  (-0.3388028E-04)
 number of electron      10.0000006 magnetization      -0.0000000
 augmentation part        0.5435448 magnetization      -0.0000030

 Broyden mixing:
  rms(total) = 0.25773E-02    rms(broyden)= 0.25770E-02
  rms(prec ) = 0.31494E-02
  weight for this iteration     100.00

 eigenvalues of (default mixing * dielectric matrix)
  average eigenvalue GAMMA=   1.4574
  2.3987  2.3987  1.4514  1.0347  0.7546  0.7063

 Free energy of the ion-electron system (eV)
  ---------------------------------------------------
  alpha Z        PSCENC =         0.00563328
  Ewald energy   TEWEN  =       233.81155575
  -Hartree energ DENC   =      -715.19271139
  -exchange      EXHF   =         0.00000000
  -V(xc)+E(xc)   XCENC  =        32.73398284
  PAW double counting   =      1019.52350783    -1013.51085299
  entropy T*S    EENTRO =        -0.00000000
  eigenvalues    EBANDS =      -151.78911376
  atomic energy  EATOM  =       579.50312721
  Solvation  Ediel_sol  =         0.00000000
  ---------------------------------------------------
  free energy    TOTEN  =       -14.91487124 eV

  energy without entropy =      -14.91487124  energy(sigma->0) =      -14.91487124


--------------------------------------------------------------------------------------------------------




--------------------------------------- Iteration      1(  12)  ---------------------------------------


    POTLOK:  cpu time    8.8127: real time    8.8147
    SETDIJ:  cpu time    0.0630: real time    0.0634
     EDDAV:  cpu time    7.9578: real time    7.9550
       DOS:  cpu time    0.0000: real time    0.0006
    CHARGE:  cpu time    1.0648: real time    1.0650
    MIXING:  cpu time    0.2020: real time    0.2016
    --------------------------------------------
      LOOP:  cpu time   18.1002: real time   18.1005

 eigenvalue-minimisations  :    96
 total energy-change (2. order) :-0.6693399E-03  (-0.5344769E-05)
 number of electron      10.0000006 magnetization      -0.0000000
 augmentation part        0.5436163 magnetization       0.0000012

 Broyden mixing:
  rms(total) = 0.14677E-02    rms(broyden)= 0.14676E-02
  rms(prec ) = 0.20167E-02
  weight for this iteration     100.00

 eigenvalues of (default mixing * dielectric matrix)
  average eigenvalue GAMMA=   1.4897
  2.6263  2.6263  1.3766  1.3766  1.0009  0.7740  0.6476

 Free energy of the ion-electron system (eV)
  ---------------------------------------------------
  alpha Z        PSCENC =         0.00563328
  Ewald energy   TEWEN  =       233.81155575
  -Hartree energ DENC   =      -715.28658045
  -exchange      EXHF   =         0.00000000
  -V(xc)+E(xc)   XCENC  =        32.73611492
  PAW double counting   =      1018.99996381    -1012.98721439
  entropy T*S    EENTRO =        -0.00000000
  eigenvalues    EBANDS =      -151.69814070
  atomic energy  EATOM  =       579.50312721
  Solvation  Ediel_sol  =         0.00000000
  ---------------------------------------------------
  free energy    TOTEN  =       -14.91554058 eV

  energy without entropy =      -14.91554058  energy(sigma->0) =      -14.91554058


--------------------------------------------------------------------------------------------------------




--------------------------------------- Iteration      1(  13)  ---------------------------------------


    POTLOK:  cpu time    8.8147: real time    8.8159
    SETDIJ:  cpu time    0.0610: real time    0.0607
     EDDAV:  cpu time    6.2730: real time    6.2723
       DOS:  cpu time    0.0010: real time    0.0005
    CHARGE:  cpu time    1.0658: real time    1.0669
    MIXING:  cpu time    0.2130: real time    0.2128
    --------------------------------------------
      LOOP:  cpu time   16.4285: real time   16.4290

 eigenvalue-minimisations  :    72
 total energy-change (2. order) :-0.7006146E-03  (-0.7449559E-05)
 number of electron      10.0000006 magnetization      -0.0000000
 augmentation part        0.5437659 magnetization      -0.0000004

 Broyden mixing:
  rms(total) = 0.10326E-02    rms(broyden)= 0.10324E-02
  rms(prec ) = 0.14008E-02
  weight for this iteration     100.00

 eigenvalues of (default mixing * dielectric matrix)
  average eigenvalue GAMMA=   1.5287
  3.0557  2.5129  1.7110  1.6813  1.0054  0.8121  0.8121  0.6389

 Free energy of the ion-electron system (eV)
  ---------------------------------------------------
  alpha Z        PSCENC =         0.00563328
  Ewald energy   TEWEN  =       233.81155575
  -Hartree energ DENC   =      -715.37756876
  -exchange      EXHF   =         0.00000000
  -V(xc)+E(xc)   XCENC  =        32.73780964
  PAW double counting   =      1018.88273990    -1012.87018852
  entropy T*S    EENTRO =        -0.00000000
  eigenvalues    EBANDS =      -151.60934969
  atomic energy  EATOM  =       579.50312721
  Solvation  Ediel_sol  =         0.00000000
  ---------------------------------------------------
  free energy    TOTEN  =       -14.91624120 eV

  energy without entropy =      -14.91624120  energy(sigma->0) =      -14.91624120


--------------------------------------------------------------------------------------------------------




--------------------------------------- Iteration      1(  14)  ---------------------------------------


    POTLOK:  cpu time    8.8177: real time    8.8197
    SETDIJ:  cpu time    0.0600: real time    0.0601
     EDDAV:  cpu time    6.2670: real time    6.2655
       DOS:  cpu time    0.0010: real time    0.0006
    CHARGE:  cpu time    1.0388: real time    1.0389
    MIXING:  cpu time    0.2570: real time    0.2580
    --------------------------------------------
      LOOP:  cpu time   16.4415: real time   16.4427

 eigenvalue-minimisations  :    72
 total energy-change (2. order) :-0.7025871E-03  (-0.7852653E-05)
 number of electron      10.0000006 magnetization      -0.0000000
 augmentation part        0.5436574 magnetization      -0.0000006

 Broyden mixing:
  rms(total) = 0.44501E-03    rms(broyden)= 0.44493E-03
  rms(prec ) = 0.69041E-03
  weight for this iteration     100.00

 eigenvalues of (default mixing * dielectric matrix)
  average eigenvalue GAMMA=   1.6588
  4.1473  2.4801  2.4801  1.5338  1.0798  1.0798  0.7627  0.7333  0.6319

 Free energy of the ion-electron system (eV)
  ---------------------------------------------------
  alpha Z        PSCENC =         0.00563328
  Ewald energy   TEWEN  =       233.81155575
  -Hartree energ DENC   =      -715.48246630
  -exchange      EXHF   =         0.00000000
  -V(xc)+E(xc)   XCENC  =        32.74009612
  PAW double counting   =      1018.93948707    -1012.92716910
  entropy T*S    EENTRO =        -0.00000000
  eigenvalues    EBANDS =      -151.50720780
  atomic energy  EATOM  =       579.50312721
  Solvation  Ediel_sol  =         0.00000000
  ---------------------------------------------------
  free energy    TOTEN  =       -14.91694378 eV

  energy without entropy =      -14.91694378  energy(sigma->0) =      -14.91694378


--------------------------------------------------------------------------------------------------------




--------------------------------------- Iteration      1(  15)  ---------------------------------------


    POTLOK:  cpu time    8.8137: real time    8.8154
    SETDIJ:  cpu time    0.0610: real time    0.0603
     EDDAV:  cpu time    7.9778: real time    7.9769
       DOS:  cpu time    0.0010: real time    0.0005
    CHARGE:  cpu time    1.0668: real time    1.0668
    MIXING:  cpu time    0.2410: real time    0.2415
    --------------------------------------------
      LOOP:  cpu time   18.1612: real time   18.1612

 eigenvalue-minimisations  :    96
 total energy-change (2. order) :-0.3030605E-03  (-0.2559729E-05)
 number of electron      10.0000006 magnetization      -0.0000000
 augmentation part        0.5436218 magnetization       0.0000005

 Broyden mixing:
  rms(total) = 0.39246E-03    rms(broyden)= 0.39244E-03
  rms(prec ) = 0.52710E-03
  weight for this iteration     100.00

 eigenvalues of (default mixing * dielectric matrix)
  average eigenvalue GAMMA=   1.7416
  5.0564  2.5037  2.5037  1.7867  1.4941  1.0495  0.9009  0.7908  0.7030  0.6270

 Free energy of the ion-electron system (eV)
  ---------------------------------------------------
  alpha Z        PSCENC =         0.00563328
  Ewald energy   TEWEN  =       233.81155575
  -Hartree energ DENC   =      -715.52773725
  -exchange      EXHF   =         0.00000000
  -V(xc)+E(xc)   XCENC  =        32.74075526
  PAW double counting   =      1018.95956932    -1012.94723258
  entropy T*S    EENTRO =        -0.00000000
  eigenvalues    EBANDS =      -151.46291783
  atomic energy  EATOM  =       579.50312721
  Solvation  Ediel_sol  =         0.00000000
  ---------------------------------------------------
  free energy    TOTEN  =       -14.91724684 eV

  energy without entropy =      -14.91724684  energy(sigma->0) =      -14.91724684


--------------------------------------------------------------------------------------------------------




--------------------------------------- Iteration      1(  16)  ---------------------------------------


    POTLOK:  cpu time    8.8177: real time    8.8185
    SETDIJ:  cpu time    0.0580: real time    0.0589
     EDDAV:  cpu time    6.2790: real time    6.2774
       DOS:  cpu time    0.0010: real time    0.0006
    CHARGE:  cpu time    1.0658: real time    1.0665
    MIXING:  cpu time    0.2500: real time    0.2507
    --------------------------------------------
      LOOP:  cpu time   16.4715: real time   16.4727

 eigenvalue-minimisations  :    72
 total energy-change (2. order) :-0.2665029E-03  (-0.1366251E-05)
 number of electron      10.0000006 magnetization      -0.0000000
 augmentation part        0.5436685 magnetization      -0.0000003

 Broyden mixing:
  rms(total) = 0.17472E-03    rms(broyden)= 0.17464E-03
  rms(prec ) = 0.26810E-03
  weight for this iteration     100.00

 eigenvalues of (default mixing * dielectric matrix)
  average eigenvalue GAMMA=   1.8107
  5.7971  2.8363  2.4048  2.4048  1.5210  1.0365  1.0365  0.7861  0.7861  0.6867
  0.6213

 Free energy of the ion-electron system (eV)
  ---------------------------------------------------
  alpha Z        PSCENC =         0.00563328
  Ewald energy   TEWEN  =       233.81155575
  -Hartree energ DENC   =      -715.54470308
  -exchange      EXHF   =         0.00000000
  -V(xc)+E(xc)   XCENC  =        32.74033528
  PAW double counting   =      1018.93107812    -1012.91861134
  entropy T*S    EENTRO =        -0.00000000
  eigenvalues    EBANDS =      -151.44592856
  atomic energy  EATOM  =       579.50312721
  Solvation  Ediel_sol  =         0.00000000
  ---------------------------------------------------
  free energy    TOTEN  =       -14.91751335 eV

  energy without entropy =      -14.91751335  energy(sigma->0) =      -14.91751335


--------------------------------------------------------------------------------------------------------




--------------------------------------- Iteration      1(  17)  ---------------------------------------


    POTLOK:  cpu time    8.8147: real time    8.8174
    SETDIJ:  cpu time    0.0590: real time    0.0589
     EDDAV:  cpu time    7.9778: real time    7.9759
       DOS:  cpu time    0.0010: real time    0.0005
    CHARGE:  cpu time    1.0658: real time    1.0669
    MIXING:  cpu time    0.2690: real time    0.2678
    --------------------------------------------
      LOOP:  cpu time   18.1862: real time   18.1874

 eigenvalue-minimisations  :    96
 total energy-change (2. order) :-0.1647366E-03  (-0.6203809E-06)
 number of electron      10.0000006 magnetization      -0.0000000
 augmentation part        0.5436711 magnetization      -0.0000001

 Broyden mixing:
  rms(total) = 0.15236E-03    rms(broyden)= 0.15235E-03
  rms(prec ) = 0.19744E-03
  weight for this iteration     100.00

 eigenvalues of (default mixing * dielectric matrix)
  average eigenvalue GAMMA=   1.8664
  6.3278  3.4211  2.4120  2.4120  1.5480  1.4625  1.0701  0.8931  0.8102  0.7479
  0.6731  0.6188

 Free energy of the ion-electron system (eV)
  ---------------------------------------------------
  alpha Z        PSCENC =         0.00563328
  Ewald energy   TEWEN  =       233.81155575
  -Hartree energ DENC   =      -715.55044161
  -exchange      EXHF   =         0.00000000
  -V(xc)+E(xc)   XCENC  =        32.74003941
  PAW double counting   =      1018.93610162    -1012.92359396
  entropy T*S    EENTRO =        -0.00000000
  eigenvalues    EBANDS =      -151.44009977
  atomic energy  EATOM  =       579.50312721
  Solvation  Ediel_sol  =         0.00000000
  ---------------------------------------------------
  free energy    TOTEN  =       -14.91767808 eV

  energy without entropy =      -14.91767808  energy(sigma->0) =      -14.91767808


--------------------------------------------------------------------------------------------------------




--------------------------------------- Iteration      1(  18)  ---------------------------------------


    POTLOK:  cpu time    8.8167: real time    8.8192
    SETDIJ:  cpu time    0.0610: real time    0.0608
     EDDAV:  cpu time    4.5793: real time    4.5776
       DOS:  cpu time    0.0000: real time    0.0005
    CHARGE:  cpu time    1.0688: real time    1.0682
    MIXING:  cpu time    0.2810: real time    0.2821
    --------------------------------------------
      LOOP:  cpu time   14.8077: real time   14.8085

 eigenvalue-minimisations  :    48
 total energy-change (2. order) :-0.1019667E-03  (-0.3361318E-06)
 number of electron      10.0000006 magnetization      -0.0000000
 augmentation part        0.5436630 magnetization       0.0000001

 Broyden mixing:
  rms(total) = 0.66587E-04    rms(broyden)= 0.66583E-04
  rms(prec ) = 0.97122E-04
  weight for this iteration     100.00

 eigenvalues of (default mixing * dielectric matrix)
  average eigenvalue GAMMA=   1.9781
  7.2890  4.1398  2.4245  2.4245  2.2170  1.5266  1.0324  0.9900  0.8681  0.7909
  0.7333  0.6187  0.6607

 Free energy of the ion-electron system (eV)
  ---------------------------------------------------
  alpha Z        PSCENC =         0.00563328
  Ewald energy   TEWEN  =       233.81155575
  -Hartree energ DENC   =      -715.55244709
  -exchange      EXHF   =         0.00000000
  -V(xc)+E(xc)   XCENC  =        32.73982496
  PAW double counting   =      1018.92701098    -1012.91450775
  entropy T*S    EENTRO =        -0.00000000
  eigenvalues    EBANDS =      -151.43797738
  atomic energy  EATOM  =       579.50312721
  Solvation  Ediel_sol  =         0.00000000
  ---------------------------------------------------
  free energy    TOTEN  =       -14.91778005 eV

  energy without entropy =      -14.91778005  energy(sigma->0) =      -14.91778005


--------------------------------------------------------------------------------------------------------




--------------------------------------- Iteration      1(  19)  ---------------------------------------


    POTLOK:  cpu time    8.8147: real time    8.8235
    SETDIJ:  cpu time    0.0590: real time    0.0600
     EDDAV:  cpu time    7.9768: real time    7.9769
       DOS:  cpu time    0.0000: real time    0.0006
    CHARGE:  cpu time    1.0648: real time    1.0644
    MIXING:  cpu time    0.2980: real time    0.2979
    --------------------------------------------
      LOOP:  cpu time   18.2122: real time   18.2233

 eigenvalue-minimisations  :    96
 total energy-change (2. order) :-0.5136979E-04  (-0.1368606E-06)
 number of electron      10.0000006 magnetization      -0.0000000
 augmentation part        0.5436562 magnetization      -0.0000000

 Broyden mixing:
  rms(total) = 0.44078E-04    rms(broyden)= 0.44070E-04
  rms(prec ) = 0.60945E-04
  weight for this iteration     100.00

 eigenvalues of (default mixing * dielectric matrix)
  average eigenvalue GAMMA=   1.9680
  7.7024  4.3756  2.6148  2.3450  2.3450  1.5327  1.0769  1.0769  0.8633  0.8633
  0.7649  0.7204  0.6188  0.6524

 Free energy of the ion-electron system (eV)
  ---------------------------------------------------
  alpha Z        PSCENC =         0.00563328
  Ewald energy   TEWEN  =       233.81155575
  -Hartree energ DENC   =      -715.55392287
  -exchange      EXHF   =         0.00000000
  -V(xc)+E(xc)   XCENC  =        32.73974008
  PAW double counting   =      1018.92105515    -1012.90856812
  entropy T*S    EENTRO =        -0.00000000
  eigenvalues    EBANDS =      -151.43645189
  atomic energy  EATOM  =       579.50312721
  Solvation  Ediel_sol  =         0.00000000
  ---------------------------------------------------
  free energy    TOTEN  =       -14.91783142 eV

  energy without entropy =      -14.91783142  energy(sigma->0) =      -14.91783142


--------------------------------------------------------------------------------------------------------




--------------------------------------- Iteration      1(  20)  ---------------------------------------


    POTLOK:  cpu time    8.8097: real time    8.8159
    SETDIJ:  cpu time    0.0610: real time    0.0608
     EDDAV:  cpu time    6.2780: real time    6.2771
       DOS:  cpu time    0.0000: real time    0.0004
    CHARGE:  cpu time    1.0638: real time    1.0653
    MIXING:  cpu time    0.3210: real time    0.3206
    --------------------------------------------
      LOOP:  cpu time   16.5345: real time   16.5400

 eigenvalue-minimisations  :    72
 total energy-change (2. order) :-0.2307149E-04  (-0.2118325E-07)
 number of electron      10.0000006 magnetization      -0.0000000
 augmentation part        0.5436583 magnetization       0.0000000

 Broyden mixing:
  rms(total) = 0.29599E-04    rms(broyden)= 0.29599E-04
  rms(prec ) = 0.40579E-04
  weight for this iteration     100.00

 eigenvalues of (default mixing * dielectric matrix)
  average eigenvalue GAMMA=   2.0755
  8.1999  4.9117  3.0813  2.3780  2.3780  2.1520  1.5216  1.0758  0.9655  0.9655
  0.7826  0.7658  0.6952  0.6200  0.6396

 Free energy of the ion-electron system (eV)
  ---------------------------------------------------
  alpha Z        PSCENC =         0.00563328
  Ewald energy   TEWEN  =       233.81155575
  -Hartree energ DENC   =      -715.55422062
  -exchange      EXHF   =         0.00000000
  -V(xc)+E(xc)   XCENC  =        32.73969727
  PAW double counting   =      1018.91702439    -1012.90454540
  entropy T*S    EENTRO =        -0.00000000
  eigenvalues    EBANDS =      -151.43612637
  atomic energy  EATOM  =       579.50312721
  Solvation  Ediel_sol  =         0.00000000
  ---------------------------------------------------
  free energy    TOTEN  =       -14.91785449 eV

  energy without entropy =      -14.91785449  energy(sigma->0) =      -14.91785449


--------------------------------------------------------------------------------------------------------




--------------------------------------- Iteration      1(  21)  ---------------------------------------


    POTLOK:  cpu time    8.8177: real time    8.8201
    SETDIJ:  cpu time    0.0620: real time    0.0618
     EDDAV:  cpu time    6.2720: real time    6.2725
       DOS:  cpu time    0.0010: real time    0.0007
    CHARGE:  cpu time    1.0648: real time    1.0653
    MIXING:  cpu time    0.3329: real time    0.3324
    --------------------------------------------
      LOOP:  cpu time   16.5495: real time   16.5528

 eigenvalue-minimisations  :    72
 total energy-change (2. order) :-0.2095604E-04  (-0.2583929E-07)
 number of electron      10.0000006 magnetization      -0.0000000
 augmentation part        0.5436599 magnetization      -0.0000000

 Broyden mixing:
  rms(total) = 0.12952E-04    rms(broyden)= 0.12951E-04
  rms(prec ) = 0.18330E-04
  weight for this iteration     100.00

 eigenvalues of (default mixing * dielectric matrix)
  average eigenvalue GAMMA=   2.0869
  8.5267  5.3319  3.4961  2.3937  2.3811  2.3811  1.5261  1.0300  1.0300  0.9106
  0.9106  0.7763  0.7555  0.6845  0.6201  0.6356

 Free energy of the ion-electron system (eV)
  ---------------------------------------------------
  alpha Z        PSCENC =         0.00563328
  Ewald energy   TEWEN  =       233.81155575
  -Hartree energ DENC   =      -715.55474270
  -exchange      EXHF   =         0.00000000
  -V(xc)+E(xc)   XCENC  =        32.73966969
  PAW double counting   =      1018.91556069    -1012.90308541
  entropy T*S    EENTRO =        -0.00000000
  eigenvalues    EBANDS =      -151.43559395
  atomic energy  EATOM  =       579.50312721
  Solvation  Ediel_sol  =         0.00000000
  ---------------------------------------------------
  free energy    TOTEN  =       -14.91787545 eV

  energy without entropy =      -14.91787545  energy(sigma->0) =      -14.91787545


--------------------------------------------------------------------------------------------------------




--------------------------------------- Iteration      1(  22)  ---------------------------------------


    POTLOK:  cpu time    8.8107: real time    8.8162
    SETDIJ:  cpu time    0.0590: real time    0.0597
     EDDAV:  cpu time    7.9798: real time    7.9770
       DOS:  cpu time    0.0000: real time    0.0006
    CHARGE:  cpu time    1.0618: real time    1.0630
    MIXING:  cpu time    0.3519: real time    0.3518
    --------------------------------------------
      LOOP:  cpu time   18.2642: real time   18.2684

 eigenvalue-minimisations  :    96
 total energy-change (2. order) :-0.5421752E-05  (-0.8914398E-09)
 number of electron      10.0000006 magnetization      -0.0000000
 augmentation part        0.5436598 magnetization      -0.0000000

 Broyden mixing:
  rms(total) = 0.10139E-04    rms(broyden)= 0.10139E-04
  rms(prec ) = 0.13362E-04
  weight for this iteration     100.00

 eigenvalues of (default mixing * dielectric matrix)
  average eigenvalue GAMMA=   2.1016
  8.7569  5.5672  3.7680  2.5182  2.3744  2.3744  1.5715  1.5048  1.1156  0.9775
  0.9775  0.7854  0.7854  0.7274  0.6715  0.6185  0.6331

 Free energy of the ion-electron system (eV)
  ---------------------------------------------------
  alpha Z        PSCENC =         0.00563328
  Ewald energy   TEWEN  =       233.81155575
  -Hartree energ DENC   =      -715.55512931
  -exchange      EXHF   =         0.00000000
  -V(xc)+E(xc)   XCENC  =        32.73967374
  PAW double counting   =      1018.91765745    -1012.90517957
  entropy T*S    EENTRO =        -0.00000000
  eigenvalues    EBANDS =      -151.43521941
  atomic energy  EATOM  =       579.50312721
  Solvation  Ediel_sol  =         0.00000000
  ---------------------------------------------------
  free energy    TOTEN  =       -14.91788087 eV

  energy without entropy =      -14.91788087  energy(sigma->0) =      -14.91788087


--------------------------------------------------------------------------------------------------------




--------------------------------------- Iteration      1(  23)  ---------------------------------------


    POTLOK:  cpu time    8.8147: real time    8.8178
    SETDIJ:  cpu time    0.0600: real time    0.0601
     EDDAV:  cpu time    4.5833: real time    4.5833
       DOS:  cpu time    0.0010: real time    0.0007
    CHARGE:  cpu time    1.0648: real time    1.0655
    MIXING:  cpu time    0.3729: real time    0.3732
    --------------------------------------------
      LOOP:  cpu time   14.8957: real time   14.9006

 eigenvalue-minimisations  :    48
 total energy-change (2. order) :-0.4574654E-05  (-0.7932677E-10)
 number of electron      10.0000006 magnetization      -0.0000000
 augmentation part        0.5436596 magnetization       0.0000000

 Broyden mixing:
  rms(total) = 0.61967E-05    rms(broyden)= 0.61966E-05
  rms(prec ) = 0.78448E-05
  weight for this iteration     100.00

 eigenvalues of (default mixing * dielectric matrix)
  average eigenvalue GAMMA=   2.1794
  9.1645  6.0219  4.2790  2.9726  2.4004  2.4004  2.3420  1.5269  1.0421  0.9979
  0.9979  0.8924  0.8008  0.7717  0.7107  0.6618  0.6165  0.6302

 Free energy of the ion-electron system (eV)
  ---------------------------------------------------
  alpha Z        PSCENC =         0.00563328
  Ewald energy   TEWEN  =       233.81155575
  -Hartree energ DENC   =      -715.55541379
  -exchange      EXHF   =         0.00000000
  -V(xc)+E(xc)   XCENC  =        32.73967584
  PAW double counting   =      1018.92091686    -1012.90843457
  entropy T*S    EENTRO =        -0.00000000
  eigenvalues    EBANDS =      -151.43494601
  atomic energy  EATOM  =       579.50312721
  Solvation  Ediel_sol  =         0.00000000
  ---------------------------------------------------
  free energy    TOTEN  =       -14.91788544 eV

  energy without entropy =      -14.91788544  energy(sigma->0) =      -14.91788544


--------------------------------------------------------------------------------------------------------




--------------------------------------- Iteration      1(  24)  ---------------------------------------


    POTLOK:  cpu time    8.8087: real time    8.8132
    SETDIJ:  cpu time    0.0600: real time    0.0609
     EDDAV:  cpu time    4.5823: real time    4.5815
       DOS:  cpu time    0.0010: real time    0.0007
    CHARGE:  cpu time    1.0638: real time    1.0645
    MIXING:  cpu time    0.3949: real time    0.3955
    --------------------------------------------
      LOOP:  cpu time   14.9107: real time   14.9163

 eigenvalue-minimisations  :    48
 total energy-change (2. order) :-0.2223217E-05  ( 0.1904574E-09)
 number of electron      10.0000006 magnetization      -0.0000000
 augmentation part        0.5436592 magnetization       0.0000000

 Broyden mixing:
  rms(total) = 0.31963E-05    rms(broyden)= 0.31960E-05
  rms(prec ) = 0.41426E-05
  weight for this iteration     100.00

 eigenvalues of (default mixing * dielectric matrix)
  average eigenvalue GAMMA=   2.1561
  9.2803  6.2496  4.4625  3.1857  2.4451  2.3674  2.3674  1.5278  1.0909  1.0909
  0.9717  0.9717  0.7982  0.7982  0.7581  0.7008  0.6544  0.6164  0.6293

 Free energy of the ion-electron system (eV)
  ---------------------------------------------------
  alpha Z        PSCENC =         0.00563328
  Ewald energy   TEWEN  =       233.81155575
  -Hartree energ DENC   =      -715.55553735
  -exchange      EXHF   =         0.00000000
  -V(xc)+E(xc)   XCENC  =        32.73967566
  PAW double counting   =      1018.92161515    -1012.90913137
  entropy T*S    EENTRO =        -0.00000000
  eigenvalues    EBANDS =      -151.43482599
  atomic energy  EATOM  =       579.50312721
  Solvation  Ediel_sol  =         0.00000000
  ---------------------------------------------------
  free energy    TOTEN  =       -14.91788767 eV

  energy without entropy =      -14.91788767  energy(sigma->0) =      -14.91788767


--------------------------------------------------------------------------------------------------------




--------------------------------------- Iteration      1(  25)  ---------------------------------------


    POTLOK:  cpu time    8.8157: real time    8.8214
    SETDIJ:  cpu time    0.0610: real time    0.0609
     EDDAV:  cpu time    7.9638: real time    7.9641
       DOS:  cpu time    0.0010: real time    0.0005
    --------------------------------------------
      LOOP:  cpu time   16.8414: real time   16.8467

 eigenvalue-minimisations  :    96
 total energy-change (2. order) :-0.8655257E-06  ( 0.4294165E-09)
 number of electron      10.0000006 magnetization      -0.0000000
 augmentation part        0.5436592 magnetization       0.0000000

 Free energy of the ion-electron system (eV)
  ---------------------------------------------------
  alpha Z        PSCENC =         0.00563328
  Ewald energy   TEWEN  =       233.81155575
  -Hartree energ DENC   =      -715.55555903
  -exchange      EXHF   =         0.00000000
  -V(xc)+E(xc)   XCENC  =        32.73967464
  PAW double counting   =      1018.92055022    -1012.90806786
  entropy T*S    EENTRO =        -0.00000000
  eigenvalues    EBANDS =      -151.43480273
  atomic energy  EATOM  =       579.50312721
  Solvation  Ediel_sol  =         0.00000000
  ---------------------------------------------------
  free energy    TOTEN  =       -14.91788853 eV

  energy without entropy =      -14.91788853  energy(sigma->0) =      -14.91788853


--------------------------------------------------------------------------------------------------------




 average (electrostatic) potential at core
  the test charge radii are     0.6768  0.6557
  (the norm of the test charge is              1.0000)
       1-128.6256       2-126.8988
 
 
 
 E-fermi :  -8.7798     XC(G=0):  -0.0390     alpha+bet : -0.0075


 spin component 1

 k-point     1 :       0.0000    0.0000    0.0000
  band No.  band energies     occupation 
      1     -29.1081      1.00000
      2     -14.1345      1.00000
      3     -11.7016      1.00000
      4     -11.7016      1.00000
      5      -9.0715      1.00000
      6      -2.1588      0.00000
      7      -2.1588      0.00000
      8      -0.0923      0.00000
      9       0.0335      0.00000
     10       0.1490      0.00000
     11       0.1496      0.00000
     12       0.1501      0.00000

 spin component 2

 k-point     1 :       0.0000    0.0000    0.0000
  band No.  band energies     occupation 
      1     -29.1081      1.00000
      2     -14.1345      1.00000
      3     -11.7016      1.00000
      4     -11.7016      1.00000
      5      -9.0715      1.00000
      6      -2.1588      0.00000
      7      -2.1588      0.00000
      8      -0.0924      0.00000
      9       0.0335      0.00000
     10       0.1490      0.00000
     11       0.1495      0.00000
     12       0.1501      0.00000


--------------------------------------------------------------------------------------------------------


 soft charge-density along one line, spin component           1
         0         1         2         3         4         5         6         7         8         9
 total charge-density along one line
 
 soft charge-density along one line, spin component           2
         0         1         2         3         4         5         6         7         8         9
 total charge-density along one line
 
 pseudopotential strength for first ion, spin component:           1
 33.656  34.709  38.929  -0.072   0.050  -0.059  -0.086   0.060
 34.709  35.796  40.111  -0.075   0.052  -0.061  -0.089   0.062
 38.929  40.111  31.453  -0.006   0.004  -0.005  -0.007   0.005
 -0.072  -0.075  -0.006  -6.966   0.037  -0.043  -7.838   0.043
  0.050   0.052   0.004   0.037  -6.939   0.030   0.043  -7.806
 -0.059  -0.061  -0.005  -0.043   0.030  -6.949  -0.051   0.035
 -0.086  -0.089  -0.007  -7.838   0.043  -0.051  -8.803   0.049
  0.060   0.062   0.005   0.043  -7.806   0.035   0.049  -8.766
 -0.071  -0.073  -0.006  -0.051   0.035  -7.818  -0.059   0.041
  0.396   0.409   0.123  -2.152  -0.072   0.085  -3.463  -0.081
 -0.274  -0.283  -0.085  -0.072  -2.206  -0.059  -0.081  -3.524
  0.324   0.335   0.100   0.085  -0.059  -2.186   0.096  -0.066
  0.009   0.009  -0.005  -0.028   0.005  -0.031  -0.033   0.006
 -0.007  -0.008   0.004   0.023  -0.029   0.005   0.028  -0.035
 -0.002  -0.002   0.001   0.016   0.019   0.013   0.020   0.023
 -0.006  -0.006   0.003   0.005  -0.024   0.021   0.006  -0.029
 -0.002  -0.002   0.001   0.027  -0.001  -0.020   0.032  -0.001
  0.108   0.112  -0.055   0.292  -0.055   0.325   0.335  -0.063
 -0.091  -0.095   0.046  -0.247   0.306  -0.055  -0.282   0.350
 -0.027  -0.028   0.014  -0.170  -0.193  -0.139  -0.194  -0.222
 -0.075  -0.078   0.038  -0.055   0.251  -0.225  -0.063   0.287
 -0.022  -0.023   0.011  -0.275   0.011   0.199  -0.315   0.013
 pseudopotential strength for first ion, spin component:           2
 33.656  34.709  38.929  -0.072   0.050  -0.059  -0.086   0.060
 34.709  35.796  40.111  -0.075   0.052  -0.061  -0.089   0.062
 38.929  40.111  31.453  -0.006   0.004  -0.005  -0.007   0.005
 -0.072  -0.075  -0.006  -6.966   0.037  -0.043  -7.838   0.043
  0.050   0.052   0.004   0.037  -6.939   0.030   0.043  -7.806
 -0.059  -0.061  -0.005  -0.043   0.030  -6.949  -0.051   0.035
 -0.086  -0.089  -0.007  -7.838   0.043  -0.051  -8.803   0.050
  0.060   0.062   0.005   0.043  -7.806   0.035   0.050  -8.766
 -0.071  -0.073  -0.006  -0.051   0.035  -7.818  -0.059   0.041
  0.396   0.409   0.123  -2.152  -0.072   0.085  -3.463  -0.081
 -0.274  -0.283  -0.085  -0.072  -2.206  -0.059  -0.081  -3.524
  0.324   0.335   0.100   0.085  -0.059  -2.186   0.096  -0.066
  0.009   0.009  -0.005  -0.028   0.005  -0.031  -0.033   0.006
 -0.007  -0.008   0.004   0.023  -0.029   0.005   0.028  -0.035
 -0.002  -0.002   0.001   0.016   0.019   0.013   0.020   0.023
 -0.006  -0.006   0.003   0.005  -0.024   0.021   0.006  -0.029
 -0.002  -0.002   0.001   0.027  -0.001  -0.020   0.032  -0.001
  0.108   0.112  -0.055   0.292  -0.055   0.325   0.335  -0.063
 -0.091  -0.095   0.046  -0.247   0.306  -0.055  -0.282   0.350
 -0.027  -0.028   0.014  -0.170  -0.193  -0.139  -0.194  -0.222
 -0.075  -0.078   0.038  -0.055   0.251  -0.225  -0.063   0.287
 -0.022  -0.023   0.011  -0.275   0.011   0.199  -0.315   0.013
 total augmentation occupancy for first ion, spin component:           1
 18.618 -17.668   0.017  -8.145   5.635  -6.674   5.258  -3.638   4.308  -0.075   0.052  -0.062  -0.494   0.417   0.124   0.342
-17.668  18.559  -0.024   7.959  -5.506   6.521  -5.219   3.610  -4.276   0.090  -0.062   0.074   0.543  -0.458  -0.137  -0.376
  0.017  -0.024   0.000  -0.007   0.005  -0.006   0.002  -0.001   0.001  -0.000   0.000  -0.000  -0.001   0.001   0.000   0.001
 -8.145   7.959  -0.007   4.633  -1.937   2.294  -2.639   1.706  -2.021   0.046  -0.005   0.006   0.206  -0.174  -0.110  -0.054
  5.635  -5.506   0.005  -1.937   3.173  -1.587   1.706  -1.353   1.398  -0.005   0.041  -0.004  -0.054   0.202  -0.111   0.165
 -6.674   6.521  -0.006   2.294  -1.587   3.713  -2.021   1.398  -1.828   0.006  -0.004   0.043   0.220  -0.054  -0.090  -0.152
  5.258  -5.219   0.002  -2.639   1.706  -2.021   2.306  -1.584   1.876   0.010  -0.009   0.011  -0.046   0.039   0.017   0.024
 -3.638   3.610  -0.001   1.706  -1.353   1.398  -1.584   1.112  -1.298  -0.009   0.003  -0.008   0.024  -0.035   0.006  -0.028
  4.308  -4.276   0.001  -2.021   1.398  -1.828   1.876  -1.298   1.554   0.011  -0.008   0.005  -0.043   0.024   0.014   0.030
 -0.075   0.090  -0.000   0.046  -0.005   0.006   0.010  -0.009   0.011   0.003  -0.001   0.001   0.008  -0.006  -0.003  -0.003
  0.052  -0.062   0.000  -0.005   0.041  -0.004  -0.009   0.003  -0.008  -0.001   0.002  -0.001  -0.003   0.006  -0.002   0.005
 -0.062   0.074  -0.000   0.006  -0.004   0.043   0.011  -0.008   0.005   0.001  -0.001   0.002   0.007  -0.003  -0.003  -0.005
 -0.494   0.543  -0.001   0.206  -0.054   0.220  -0.046   0.024  -0.043   0.008  -0.003   0.007   0.035  -0.019  -0.016  -0.018
  0.417  -0.458   0.001  -0.174   0.202  -0.054   0.039  -0.035   0.024  -0.006   0.006  -0.003  -0.019   0.029  -0.003   0.019
  0.124  -0.137   0.000  -0.110  -0.111  -0.090   0.017   0.006   0.014  -0.003  -0.002  -0.003  -0.016  -0.003   0.017  -0.002
  0.342  -0.376   0.001  -0.054   0.165  -0.152   0.024  -0.028   0.030  -0.003   0.005  -0.005  -0.018   0.019  -0.002   0.022
  0.099  -0.109   0.000  -0.172   0.011   0.115   0.022  -0.005  -0.006  -0.004   0.001   0.002  -0.003   0.011   0.003  -0.006
 -0.007   0.009  -0.000   0.003  -0.003   0.003  -0.003   0.002  -0.002   0.000  -0.000   0.000   0.000  -0.000  -0.000  -0.000
  0.006  -0.008   0.000  -0.003   0.002  -0.003   0.002  -0.002   0.002  -0.000   0.000  -0.000  -0.000   0.000   0.000   0.000
  0.002  -0.002   0.000  -0.001   0.001  -0.001   0.001  -0.001   0.001  -0.000   0.000  -0.000  -0.000   0.000  -0.000   0.000
  0.005  -0.006   0.000  -0.003   0.001  -0.002   0.002  -0.001   0.002  -0.000   0.000  -0.000  -0.000   0.000   0.000   0.000
  0.001  -0.002   0.000  -0.000   0.001  -0.001   0.001  -0.000   0.001   0.000   0.000  -0.000  -0.000   0.000   0.000   0.000
 total augmentation occupancy for first ion, spin component:           2
 -0.000   0.000   0.000   0.000  -0.000   0.000  -0.000   0.000  -0.000   0.000  -0.000   0.000   0.000  -0.000   0.000  -0.000
  0.000  -0.000   0.000  -0.000   0.000  -0.000   0.000  -0.000   0.000  -0.000   0.000  -0.000  -0.000   0.000   0.000   0.000
  0.000   0.000   0.000   0.000   0.000  -0.000  -0.000   0.000  -0.000  -0.000   0.000  -0.000  -0.000   0.000   0.000   0.000
  0.000  -0.000   0.000  -0.000   0.000   0.000  -0.000   0.000  -0.000  -0.000   0.000  -0.000  -0.000   0.000  -0.000  -0.000
 -0.000   0.000   0.000   0.000  -0.000  -0.000   0.000   0.000  -0.000   0.000  -0.000  -0.000  -0.000  -0.000   0.000  -0.000
  0.000  -0.000  -0.000   0.000  -0.000  -0.000  -0.000   0.000   0.000  -0.000  -0.000  -0.000  -0.000  -0.000   0.000   0.000
 -0.000   0.000  -0.000  -0.000   0.000  -0.000   0.000  -0.000   0.000   0.000  -0.000   0.000   0.000  -0.000   0.000  -0.000
  0.000  -0.000   0.000   0.000   0.000   0.000  -0.000  -0.000   0.000  -0.000   0.000  -0.000   0.000   0.000  -0.000   0.000
 -0.000   0.000  -0.000  -0.000  -0.000   0.000   0.000   0.000  -0.000   0.000   0.000   0.000   0.000   0.000   0.000  -0.000
  0.000  -0.000  -0.000  -0.000   0.000  -0.000   0.000  -0.000   0.000  -0.000   0.000  -0.000  -0.000   0.000   0.000  -0.000
[...]
    CHARGE:  cpu time    1.0628: real time    1.0644
    MIXING:  cpu time    0.1590: real time    0.1593
    --------------------------------------------
      LOOP:  cpu time   18.0013: real time   18.0184

 eigenvalue-minimisations  :    96
 total energy-change (2. order) :-0.9400696E-07  (-0.1430482E-09)
 number of electron      10.0000006 magnetization      -0.0000000
 augmentation part        0.5457306 magnetization       0.0000000

 Broyden mixing:
  rms(total) = 0.21770E-04    rms(broyden)= 0.21768E-04
  rms(prec ) = 0.22246E-04
  weight for this iteration     100.00

 eigenvalues of (default mixing * dielectric matrix)
  average eigenvalue GAMMA=   1.5709
  2.2868  0.9715  1.4543

 Free energy of the ion-electron system (eV)
  ---------------------------------------------------
  alpha Z        PSCENC =         0.00563328
  Ewald energy   TEWEN  =       235.61752634
  -Hartree energ DENC   =      -717.02318295
  -exchange      EXHF   =         0.00000000
  -V(xc)+E(xc)   XCENC  =        32.79135464
  PAW double counting   =      1027.69954373    -1021.69407454
  entropy T*S    EENTRO =        -0.00000000
  eigenvalues    EBANDS =      -151.82043577
  atomic energy  EATOM  =       579.50312721
  Solvation  Ediel_sol  =         0.00000000
  ---------------------------------------------------
  free energy    TOTEN  =       -14.92050808 eV

  energy without entropy =      -14.92050808  energy(sigma->0) =      -14.92050808


--------------------------------------------------------------------------------------------------------




--------------------------------------- Iteration      4(   5)  ---------------------------------------


    POTLOK:  cpu time    8.7337: real time    8.7361
    SETDIJ:  cpu time    0.0590: real time    0.0599
     EDDAV:  cpu time    5.4402: real time    5.4409
       DOS:  cpu time    0.0010: real time    0.0004
    --------------------------------------------
      LOOP:  cpu time   14.2328: real time   14.2371

 eigenvalue-minimisations  :    60
 total energy-change (2. order) :-0.6466894E-07  ( 0.1047052E-08)
 number of electron      10.0000006 magnetization      -0.0000000
 augmentation part        0.5457306 magnetization       0.0000000

 Free energy of the ion-electron system (eV)
  ---------------------------------------------------
  alpha Z        PSCENC =         0.00563328
  Ewald energy   TEWEN  =       235.61752634
  -Hartree energ DENC   =      -717.02357256
  -exchange      EXHF   =         0.00000000
  -V(xc)+E(xc)   XCENC  =        32.79137454
  PAW double counting   =      1027.69428733    -1021.68881489
  entropy T*S    EENTRO =        -0.00000000
  eigenvalues    EBANDS =      -151.82006938
  atomic energy  EATOM  =       579.50312721
  Solvation  Ediel_sol  =         0.00000000
  ---------------------------------------------------
  free energy    TOTEN  =       -14.92050814 eV

  energy without entropy =      -14.92050814  energy(sigma->0) =      -14.92050814


--------------------------------------------------------------------------------------------------------




 average (electrostatic) potential at core
  the test charge radii are     0.6768  0.6557
  (the norm of the test charge is              1.0000)
       1-128.6495       2-126.8660
 
 
 
 E-fermi :  -8.8020     XC(G=0):  -0.0299     alpha+bet : -0.0075


 spin component 1

 k-point     1 :       0.0000    0.0000    0.0000
  band No.  band energies     occupation 
      1     -29.2040      1.00000
      2     -14.1309      1.00000
      3     -11.7597      1.00000
      4     -11.7597      1.00000
      5      -9.0556      1.00000
      6      -2.0939      0.00000
      7      -2.0939      0.00000
      8      -0.0855      0.00000
      9       0.0417      0.00000
     10       0.1582      0.00000
     11       0.1601      0.00000
     12       0.1602      0.00000

 spin component 2

 k-point     1 :       0.0000    0.0000    0.0000
  band No.  band energies     occupation 
      1     -29.2040      1.00000
      2     -14.1309      1.00000
      3     -11.7597      1.00000
      4     -11.7597      1.00000
      5      -9.0556      1.00000
      6      -2.0939      0.00000
      7      -2.0939      0.00000
      8      -0.0855      0.00000
      9       0.0417      0.00000
     10       0.1582      0.00000
     11       0.1601      0.00000
     12       0.1602      0.00000


--------------------------------------------------------------------------------------------------------


 soft charge-density along one line, spin component           1
         0         1         2         3         4         5         6         7         8         9
 total charge-density along one line
 
 soft charge-density along one line, spin component           2
         0         1         2         3         4         5         6         7         8         9
 total charge-density along one line
 
 pseudopotential strength for first ion, spin component:           1
 33.658  34.712  38.931  -0.074   0.051  -0.060  -0.088   0.061
 34.712  35.798  40.113  -0.076   0.053  -0.063  -0.091   0.063
 38.931  40.113  31.458  -0.006   0.004  -0.005  -0.007   0.005
 -0.074  -0.076  -0.006  -6.971   0.038  -0.045  -7.843   0.044
  0.051   0.053   0.004   0.038  -6.943   0.031   0.044  -7.810
 -0.060  -0.063  -0.005  -0.045   0.031  -6.953  -0.052   0.036
 -0.088  -0.091  -0.007  -7.843   0.044  -0.052  -8.810   0.051
  0.061   0.063   0.005   0.044  -7.810   0.036   0.051  -8.771
 -0.072  -0.075  -0.006  -0.052   0.036  -7.822  -0.060   0.042
  0.402   0.416   0.123  -2.144  -0.074   0.087  -3.453  -0.084
 -0.278  -0.288  -0.085  -0.074  -2.199  -0.060  -0.084  -3.516
  0.330   0.341   0.101   0.087  -0.060  -2.179   0.099  -0.068
  0.009   0.010  -0.005  -0.028   0.005  -0.032  -0.034   0.006
 -0.008  -0.008   0.004   0.024  -0.030   0.005   0.028  -0.036
 -0.002  -0.002   0.001   0.017   0.020   0.014   0.020   0.023
 -0.006  -0.007   0.003   0.005  -0.025   0.022   0.006  -0.029
 -0.002  -0.002   0.001   0.027  -0.001  -0.020   0.033  -0.001
  0.111   0.115  -0.057   0.298  -0.057   0.331   0.341  -0.065
 -0.094  -0.097   0.048  -0.251   0.311  -0.057  -0.288   0.356
 -0.028  -0.029   0.014  -0.173  -0.196  -0.141  -0.198  -0.225
 -0.077  -0.080   0.039  -0.057   0.255  -0.229  -0.065   0.292
 -0.022  -0.023   0.011  -0.280   0.011   0.202  -0.320   0.013
 pseudopotential strength for first ion, spin component:           2
 33.658  34.712  38.931  -0.074   0.051  -0.060  -0.088   0.061
 34.712  35.798  40.113  -0.076   0.053  -0.063  -0.091   0.063
 38.931  40.113  31.458  -0.006   0.004  -0.005  -0.007   0.005
 -0.074  -0.076  -0.006  -6.971   0.038  -0.045  -7.843   0.044
  0.051   0.053   0.004   0.038  -6.943   0.031   0.044  -7.810
 -0.060  -0.063  -0.005  -0.045   0.031  -6.953  -0.052   0.036
 -0.088  -0.091  -0.007  -7.843   0.044  -0.052  -8.810   0.051
  0.061   0.063   0.005   0.044  -7.810   0.036   0.051  -8.771
 -0.072  -0.075  -0.006  -0.052   0.036  -7.822  -0.060   0.042
  0.402   0.416   0.123  -2.144  -0.074   0.087  -3.453  -0.084
 -0.278  -0.288  -0.085  -0.074  -2.199  -0.060  -0.084  -3.516
  0.330   0.341   0.101   0.087  -0.060  -2.179   0.099  -0.068
  0.009   0.010  -0.005  -0.028   0.005  -0.032  -0.034   0.006
 -0.008  -0.008   0.004   0.024  -0.030   0.005   0.028  -0.036
 -0.002  -0.002   0.001   0.017   0.020   0.014   0.020   0.023
 -0.006  -0.007   0.003   0.005  -0.025   0.022   0.006  -0.029
 -0.002  -0.002   0.001   0.027  -0.001  -0.020   0.033  -0.001
  0.111   0.115  -0.057   0.298  -0.057   0.331   0.341  -0.065
 -0.094  -0.097   0.048  -0.251   0.311  -0.057  -0.288   0.356
 -0.028  -0.029   0.014  -0.173  -0.196  -0.141  -0.198  -0.225
 -0.077  -0.080   0.039  -0.057   0.255  -0.229  -0.065   0.292
 -0.022  -0.023   0.011  -0.280   0.011   0.202  -0.320   0.013
 total augmentation occupancy for first ion, spin component:           1
 18.726 -17.779   0.017  -8.198   5.672  -6.717   5.331  -3.688   4.368  -0.074   0.051  -0.060  -0.490   0.414   0.123   0.339
-17.779  18.673  -0.025   7.994  -5.531   6.550  -5.273   3.648  -4.320   0.089  -0.062   0.073   0.540  -0.456  -0.136  -0.374
  0.017  -0.025   0.000  -0.007   0.005  -0.006   0.001  -0.001   0.001  -0.000   0.000  -0.000  -0.001   0.001   0.000   0.001
 -8.198   7.994  -0.007   4.672  -1.956   2.317  -2.697   1.743  -2.064   0.044  -0.004   0.005   0.200  -0.169  -0.110  -0.048
  5.672  -5.531   0.005  -1.956   3.197  -1.603   1.743  -1.383   1.428  -0.004   0.041  -0.003  -0.048   0.200  -0.115   0.164
 -6.717   6.550  -0.006   2.317  -1.603   3.742  -2.064   1.428  -1.869   0.005  -0.003   0.042   0.217  -0.048  -0.090  -0.150
  5.331  -5.273   0.001  -2.697   1.743  -2.064   2.383  -1.637   1.938   0.012  -0.011   0.013  -0.040   0.034   0.016   0.019
 -3.688   3.648  -0.001   1.743  -1.383   1.428  -1.637   1.149  -1.341  -0.011   0.004  -0.009   0.019  -0.031   0.007  -0.026
  4.368  -4.320   0.001  -2.064   1.428  -1.869   1.938  -1.341   1.605   0.013  -0.009   0.007  -0.038   0.019   0.013   0.026
 -0.074   0.089  -0.000   0.044  -0.004   0.005   0.012  -0.011   0.013   0.003  -0.001   0.002   0.008  -0.007  -0.003  -0.004
  0.051  -0.062   0.000  -0.004   0.041  -0.003  -0.011   0.004  -0.009  -0.001   0.002  -0.001  -0.004   0.006  -0.002   0.005
 -0.060   0.073  -0.000   0.005  -0.003   0.042   0.013  -0.009   0.007   0.002  -0.001   0.002   0.008  -0.004  -0.003  -0.005
 -0.490   0.540  -0.001   0.200  -0.048   0.217  -0.040   0.019  -0.038   0.008  -0.004   0.008   0.036  -0.019  -0.016  -0.019
  0.414  -0.456   0.001  -0.169   0.200  -0.048   0.034  -0.031   0.019  -0.007   0.006  -0.004  -0.019   0.030  -0.003   0.019
  0.123  -0.136   0.000  -0.110  -0.115  -0.090   0.016   0.007   0.013  -0.003  -0.002  -0.003  -0.016  -0.003   0.017  -0.002
  0.339  -0.374   0.001  -0.048   0.164  -0.150   0.019  -0.026   0.026  -0.004   0.005  -0.005  -0.019   0.019  -0.002   0.022
  0.098  -0.108   0.000  -0.173   0.010   0.119   0.021  -0.004  -0.008  -0.004   0.001   0.002  -0.003   0.012   0.003  -0.006
 -0.006   0.009  -0.000   0.003  -0.003   0.003  -0.003   0.002  -0.002   0.000  -0.000   0.000   0.000  -0.000  -0.000  -0.000
  0.005  -0.008   0.000  -0.003   0.002  -0.003   0.002  -0.002   0.002  -0.000   0.000  -0.000  -0.000   0.000   0.000   0.000
  0.002  -0.002   0.000  -0.001   0.001  -0.001   0.001  -0.001   0.001  -0.000   0.000  -0.000  -0.000   0.000  -0.000   0.000
  0.004  -0.006   0.000  -0.003   0.001  -0.002   0.002  -0.001   0.002  -0.000   0.000  -0.000  -0.000   0.000   0.000   0.000
  0.001  -0.002   0.000  -0.000   0.001  -0.001   0.001  -0.000   0.001   0.000   0.000  -0.000  -0.000   0.000   0.000   0.000
 total augmentation occupancy for first ion, spin component:           2
  0.000   0.000   0.000   0.000  -0.000   0.000  -0.000   0.000  -0.000   0.000   0.000  -0.000  -0.000   0.000   0.000   0.000
  0.000  -0.000   0.000  -0.000   0.000  -0.000   0.000  -0.000   0.000  -0.000  -0.000   0.000   0.000  -0.000   0.000  -0.000
  0.000   0.000  -0.000   0.000   0.000  -0.000  -0.000   0.000  -0.000  -0.000   0.000  -0.000  -0.000   0.000  -0.000   0.000
  0.000  -0.000   0.000  -0.000   0.000   0.000   0.000  -0.000   0.000  -0.000   0.000   0.000   0.000   0.000  -0.000  -0.000
 -0.000   0.000   0.000   0.000   0.000  -0.000  -0.000  -0.000   0.000   0.000  -0.000  -0.000  -0.000  -0.000  -0.000   0.000
  0.000  -0.000  -0.000   0.000  -0.000  -0.000  -0.000   0.000   0.000   0.000  -0.000  -0.000  -0.000  -0.000   0.000   0.000
 -0.000   0.000  -0.000   0.000  -0.000  -0.000  -0.000   0.000  -0.000  -0.000  -0.000  -0.000  -0.000  -0.000   0.000   0.000
  0.000  -0.000   0.000  -0.000  -0.000   0.000   0.000   0.000  -0.000  -0.000   0.000   0.000   0.000   0.000   0.000  -0.000
 -0.000   0.000  -0.000   0.000   0.000   0.000  -0.000  -0.000   0.000  -0.000   0.000   0.000   0.000   0.000  -0.000  -0.000
  0.000  -0.000  -0.000  -0.000   0.000   0.000  -0.000  -0.000  -0.000  -0.000   0.000   0.000  -0.000   0.000   0.000  -0.000
  0.000  -0.000   0.000   0.000  -0.000  -0.000  -0.000   0.000   0.000   0.000  -0.000  -0.000  -0.000  -0.000   0.000   0.000
 -0.000   0.000  -0.000   0.000  -0.000  -0.000  -0.000   0.000   0.000   0.000  -0.000   0.000   0.000  -0.000   0.000  -0.000
 -0.000   0.000  -0.000   0.000  -0.000  -0.000  -0.000   0.000   0.000  -0.000  -0.000   0.000   0.000  -0.000   0.000   0.000
  0.000  -0.000   0.000   0.000  -0.000  -0.000  -0.000   0.000   0.000   0.000  -0.000  -0.000  -0.000   0.000   0.000   0.000
  0.000   0.000  -0.000  -0.000  -0.000   0.000   0.000   0.000  -0.000   0.000   0.000   0.000   0.000   0.000  -0.000  -0.000
  0.000  -0.000   0.000  -0.000   0.000   0.000   0.000  -0.000  -0.000  -0.000   0.000  -0.000   0.000   0.000  -0.000   0.000
  0.000  -0.000  -0.000   0.000  -0.000  -0.000  -0.000   0.000   0.000   0.000  -0.000  -0.000  -0.000   0.000   0.000   0.000
 -0.000   0.000  -0.000  -0.000  -0.000   0.000   0.000   0.000  -0.000  -0.000  -0.000   0.000  -0.000  -0.000   0.000  -0.000
  0.000   0.000  -0.000   0.000  -0.000  -0.000  -0.000   0.000   0.000   0.000  -0.000  -0.000  -0.000  -0.000   0.000  -0.000
 -0.000   0.000  -0.000  -0.000  -0.000   0.000  -0.000   0.000  -0.000  -0.000  -0.000  -0.000  -0.000  -0.000   0.000  -0.000
  0.000  -0.000   0.000  -0.000  -0.000   0.000   0.000  -0.000   0.000  -0.000  -0.000   0.000  -0.000   0.000   0.000  -0.000
 -0.000   0.000  -0.000   0.000   0.000   0.000  -0.000  -0.000  -0.000   0.000  -0.000   0.000   0.000  -0.000  -0.000  -0.000


------------------------ aborting loop because EDIFF is reached ----------------------------------------


    CHARGE:  cpu time    1.0658: real time    1.0650
    FORLOC:  cpu time    0.1700: real time    0.1695
    FORNL :  cpu time    1.8837: real time    1.8855
    STRESS:  cpu time    5.9231: real time    5.9435
    FORCOR:  cpu time    8.3187: real time    8.3363
    FORHAR:  cpu time    1.0458: real time    1.0463
    MIXING:  cpu time    0.1670: real time    0.1671
    OFIELD:  cpu time    0.0000: real time    0.0003

 ---------------------------------------------------------------------------------------------

         DFTD3 V3.0 Rev 1        
 Edisp (eV)   -0.00001

 E6    (eV) :    -0.0000
 E8    (eV) :    -0.0000
 % E8        : 89.05
    FORVDW:  cpu time    0.0110: real time    0.0114

  FORCE on cell =-STRESS in cart. coord.  units (eV):
  Direction    XX          YY          ZZ          XY          YZ          ZX
  --------------------------------------------------------------------------------------
  Alpha Z     0.00563     0.00563     0.00563
  Ewald      72.14001   118.56682    44.91087   115.69121   -97.68492   -80.04151
  Hartree   236.76127   253.06058   227.20179    40.55912   -34.24648   -28.06105
  E(xc)     -45.57620   -45.44432   -45.65356     0.32880    -0.27763    -0.22748
  Local    -529.02369  -589.54609  -493.52743  -150.75571   127.29199   104.30108
  n-local    55.09085    54.94539    55.17614    -0.36181     0.30587     0.25029
  augment    16.96246    17.05666    16.90766     0.23431    -0.19797    -0.16210
  Kinetic   193.50452   191.22275   194.84260    -5.68931     4.80383     3.93619
  Fock        0.00000     0.00000     0.00000     0.00000     0.00000     0.00000
  vdW         0.00002     0.00003     0.00002     0.00003    -0.00002    -0.00002
  -------------------------------------------------------------------------------------
  Total      -0.13512    -0.13255    -0.13628     0.00663    -0.00533    -0.00461
  in kB      -0.00802    -0.00787    -0.00809     0.00039    -0.00032    -0.00027
  external pressure =       -0.01 kB  Pullay stress =        0.00 kB


 VOLUME and BASIS-vectors are now :
 -----------------------------------------------------------------------------
  energy-cutoff  :      520.00
  volume of cell :    27000.00
      direct lattice vectors                 reciprocal lattice vectors
    30.000000000  0.000000000  0.000000000     0.033333333  0.000000000  0.000000000
     0.000000000 30.000000000  0.000000000     0.000000000  0.033333333  0.000000000
     0.000000000  0.000000000 30.000000000     0.000000000  0.000000000  0.033333333

  length of vectors
    30.000000000 30.000000000 30.000000000     0.033333333  0.033333333  0.033333333


 FORCES acting on ions
    electron-ion (+dipol)            ewald-force                    non-local-force                 convergence-correction
 -----------------------------------------------------------------------------------------------
   0.120E+03 0.146E+03 -.101E+03   -.149E+03 -.182E+03 0.126E+03   0.292E+02 0.356E+02 -.246E+02   0.251E-04 0.307E-04 -.213E-04
   -.135E+03 -.165E+03 0.114E+03   0.149E+03 0.182E+03 -.126E+03   -.139E+02 -.169E+02 0.117E+02   0.781E-04 0.952E-04 -.659E-04
 -----------------------------------------------------------------------------------------------
   -.153E+02 -.187E+02 0.129E+02   0.000E+00 0.000E+00 0.000E+00   0.153E+02 0.187E+02 -.129E+02   0.103E-03 0.126E-03 -.873E-04
 
 
 POSITION                                       TOTAL-FORCE (eV/Angst)
 -----------------------------------------------------------------------------------
     29.93556      5.87849      6.88774        -0.000055      0.000501     -0.000070
      0.57150      6.65461      6.35078         0.000055     -0.000501      0.000070
 -----------------------------------------------------------------------------------
    total drift:                               -0.000505      0.000984      0.000566


--------------------------------------------------------------------------------------------------------



  FREE ENERGIE OF THE ION-ELECTRON SYSTEM (eV)
  ---------------------------------------------------
  free  energy   TOTEN  =       -14.92051770 eV

  energy  without entropy=      -14.92051770  energy(sigma->0) =      -14.92051770
 
 d Force = 0.8806482E-06[-0.437E-07, 0.181E-05]  d Energy = 0.1579707E-05-0.699E-06
 d Force = 0.3389623E-01[ 0.339E-01, 0.339E-01]  d Ewald  = 0.3389623E-01 0.223E-09


--------------------------------------------------------------------------------------------------------


    POTLOK:  cpu time    8.7597: real time    8.7678


--------------------------------------------------------------------------------------------------------


 stress matrix after NEB project (eV)
     -0.13512      0.00663     -0.00461
      0.00663     -0.13255     -0.00533
     -0.00461     -0.00533     -0.13628
  FORCES: max atom, RMS     0.000509    0.000509
  FORCE total and by dimension    0.000720    0.000501
  Stress total and by dimension    0.233637    0.136278


--------------------------------------------------------------------------------------------------------


  
 reached required accuracy - stopping structural energy minimisation
     LOOP+:  cpu time  106.8828: real time  107.0205
    4ORBIT:  cpu time    0.0000: real time    0.0000

 total amount of memory used by VASP MPI-rank0   784906. kBytes
=======================================================================

   base      :      30000. kBytes
   nonlr-proj:        748. kBytes
   fftplans  :     211127. kBytes
   grid      :     531349. kBytes
   one-center:         46. kBytes
   wavefun   :      11636. kBytes
 
  
  
 General timing and accounting informations for this job:
 ========================================================
  
                  Total CPU time used (sec):     1948.604
                            User time (sec):     1607.531
                          System time (sec):      341.073
                         Elapsed time (sec):     6188.063
  
                   Maximum memory used (kb):     2051640.
                   Average memory used (kb):           0.
  
                          Minor page faults:       456833
                          Major page faults:            0
                 Voluntary context switches:     53957312
