 vasp.5.4.4.18Apr17-6-g9f103f2a35 (build May 21 2019 18:55:53) complex          
  
 executed on           IFC19_impi date 2025.08.28  10:32:07
 running on   24 total cores
 distrk:  each k-point on   24 cores,    1 groups
 distr:  one band on NCORES_PER_BAND=   4 cores,    6 groups


--------------------------------------------------------------------------------------------------------


 INCAR:
 POTCAR:    PAW_PBE O_GW_new 19Mar2012            
 POTCAR:    PAW_PBE C_GW_new 19Mar2012            
 POTCAR:    PAW_PBE O_GW_new 19Mar2012            
   SHA256 =  c493eb4e480bc193c6922e0b8c73e7a108f48fca6e73afddd92a880a1c2b3374 O_
   COPYR  = (c) Copyright 19Mar2012 Georg Kresse                                
   COPYR  = This file is part of the software VASP. Any use, copying, and all ot
   COPYR  = If you do not have a valid VASP license, you may not use, copy or di
   VRHFIN =O: s2p4                                                              
   LEXCH  = PE                                                                  
   EATOM  =   432.3788 eV,   31.7789 Ry                                         
                                                                                
   TITEL  = PAW_PBE O_GW_new 19Mar2012                                          
   LULTRA =        F    use ultrasoft PP ?                                      
   IUNSCR =        1    unscreen: 0-lin 1-nonlin 2-no                           
   RPACOR =    0.800    partial core radius                                     
   POMASS =   16.000; ZVAL   =    6.000    mass and valenz                      
   RCORE  =    1.600    outmost cutoff radius                                   
   RWIGS  =    1.600; RWIGS  =    0.847    wigner-seitz radius (au A)           
   ENMAX  =  434.431; ENMIN  =  325.824 eV                                      
   ICORE  =        3    local potential                                         
   LCOR   =        T    correct aug charges                                     
   LPAW   =        T    paw PP                                                  
   EAUG   = 1139.609                                                            
   DEXC   =    0.000                                                            
   RMAX   =    1.629    core radius for proj-oper                               
   RAUG   =    1.300    factor for augmentation sphere                          
   RDEP   =    1.652    radius for radial grids                                 
   RDEPT  =    1.200    core radius for aug-charge                              
                                                                                
   Atomic configuration                                                         
    5 entries                                                                   
     n  l   j            E        occ.                                          
     1  0  0.50      -514.6923   2.0000                                         
     2  0  0.50       -23.9615   2.0000                                         
     2  1  0.50        -9.0305   4.0000                                         
     3  2  1.50        -9.5241   0.0000                                         
     4  3  2.50        -9.5241   0.0000                                         
   Description                                                                  
     l       E           TYP  RCUT    TYP  RCUT                                 
     0    -23.9615316     23  1.150                                             
     0    -25.3221142     23  1.150                                             
     0    244.9048680     23  1.300                                             
     1     -9.0304908     23  1.500                                             
     1     -6.9258396     23  1.500                                             
     1    122.4524340     23  1.500                                             
     2     13.6058260     23  1.500                                             
     2    190.4815640     23  1.600                                             
     3     54.4233040     23  1.400                                             
  local pseudopotential read in
  partial core-charges read in
  partial kinetic energy density read in
  kinetic energy density of atom read in
  atomic valenz-charges read in
  non local Contribution for L=           0  read in
    real space projection operators read in
  non local Contribution for L=           0  read in
    real space projection operators read in
  non local Contribution for L=           0  read in
    real space projection operators read in
  non local Contribution for L=           1  read in
    real space projection operators read in
  non local Contribution for L=           1  read in
    real space projection operators read in
  non local Contribution for L=           1  read in
    real space projection operators read in
  non local Contribution for L=           2  read in
    real space projection operators read in
  non local Contribution for L=           2  read in
    real space projection operators read in
    PAW grid and wavefunctions read in
 
   number of l-projection  operators is LMAX  =           8
   number of lm-projection operators is LMMAX =          22
 
 POTCAR:    PAW_PBE C_GW_new 19Mar2012            
   SHA256 =  fd3f4f69ac51e962ca076bfc50bb68de54373009f6c2495f58fe5f585428a9ad C_
   COPYR  = (c) Copyright 19Mar2012 Georg Kresse                                
   COPYR  = This file is part of the software VASP. Any use, copying, and all ot
   COPYR  = If you do not have a valid VASP license, you may not use, copy or di
   VRHFIN =C: s2p2                                                              
   LEXCH  = PE                                                                  
   EATOM  =   147.1560 eV,   10.8157 Ry                                         
                                                                                
   TITEL  = PAW_PBE C_GW_new 19Mar2012                                          
   LULTRA =        F    use ultrasoft PP ?                                      
   IUNSCR =        1    unscreen: 0-lin 1-nonlin 2-no                           
   RPACOR =    0.800    partial core radius                                     
   POMASS =   12.011; ZVAL   =    4.000    mass and valenz                      
   RCORE  =    1.600    outmost cutoff radius                                   
   RWIGS  =    1.600; RWIGS  =    0.847    wigner-seitz radius (au A)           
   ENMAX  =  413.992; ENMIN  =  310.494 eV                                      
   ICORE  =        3    local potential                                         
   LCOR   =        T    correct aug charges                                     
   LPAW   =        T    paw PP                                                  
   EAUG   = 1213.930                                                            
   DEXC   =    0.000                                                            
   RMAX   =    1.630    core radius for proj-oper                               
   RAUG   =    1.300    factor for augmentation sphere                          
   RDEP   =    1.601    radius for radial grids                                 
   RDEPT  =    1.200    core radius for aug-charge                              
                                                                                
   Atomic configuration                                                         
    5 entries                                                                   
     n  l   j            E        occ.                                          
     1  0  0.50      -273.3789   2.0000                                         
     2  0  0.50       -13.7508   2.0000                                         
     2  1  0.50        -5.2854   2.0000                                         
     3  2  1.50        -5.4423   0.0000                                         
     4  3  2.50        -5.4423   0.0000                                         
   Description                                                                  
     l       E           TYP  RCUT    TYP  RCUT                                 
     0    -13.7508457     23  1.200                                             
     0     -7.5219285     23  1.200                                             
     0    272.1165200     23  1.300                                             
     1     -5.2854382     23  1.500                                             
     1    108.8466080     23  1.500                                             
     2     27.2116520     23  1.500                                             
     2    190.4815640     23  1.600                                             
     3     54.4233040     23  1.400                                             
  local pseudopotential read in
  partial core-charges read in
  partial kinetic energy density read in
  kinetic energy density of atom read in
  atomic valenz-charges read in
  non local Contribution for L=           0  read in
    real space projection operators read in
  non local Contribution for L=           0  read in
    real space projection operators read in
  non local Contribution for L=           0  read in
    real space projection operators read in
  non local Contribution for L=           1  read in
    real space projection operators read in
  non local Contribution for L=           1  read in
    real space projection operators read in
  non local Contribution for L=           2  read in
    real space projection operators read in
  non local Contribution for L=           2  read in
    real space projection operators read in
    PAW grid and wavefunctions read in
 
   number of l-projection  operators is LMAX  =           7
   number of lm-projection operators is LMMAX =          19
 

 ----------------------------------------------------------------------------- 
|                                                                             |
|  ADVICE TO THIS USER RUNNING 'VASP/VAMP'   (HEAR YOUR MASTER'S VOICE ...):  |
|                                                                             |
|      You have a (more or less) 'small supercell' and for smaller cells      |
|      it is recommended  to use the reciprocal-space projection scheme!      |
|      The real space optimization is not  efficient for small cells and it   |
|      is also less accurate ...                                              |
|      Therefore set LREAL=.FALSE. in the  INCAR file                         |
|                                                                             |
 ----------------------------------------------------------------------------- 

 Optimization of the real space projectors (new method)

 maximal supplied QI-value         = 23.62
 optimisation between [QCUT,QGAM] = [ 11.57, 23.15] = [ 37.52,150.06] Ry 
 Optimized for a Real-space Cutoff    1.53 Angstroem

   l    n(q)    QCUT    max X(q) W(low)/X(q) W(high)/X(q)  e(spline) 
   0     11    11.575   116.464    0.19E-03    0.50E-03    0.68E-05
   0     11    11.575   116.329    0.18E-03    0.48E-03    0.66E-05
   0     11    11.575     0.942    0.91E-04    0.25E-03    0.30E-05
   1     10    11.575    68.203    0.23E-03    0.52E-03    0.69E-05
   1     10    11.575    60.250    0.22E-03    0.51E-03    0.68E-05
   1     10    11.575     2.381    0.21E-03    0.47E-03    0.62E-05
   2     10    11.575     2.237    0.20E-04    0.44E-04    0.41E-06
   2     10    11.575     2.486    0.52E-04    0.84E-04    0.58E-06
 Optimization of the real space projectors (new method)

 maximal supplied QI-value         = 23.62
 optimisation between [QCUT,QGAM] = [ 11.57, 23.15] = [ 37.52,150.06] Ry 
 Optimized for a Real-space Cutoff    1.40 Angstroem

   l    n(q)    QCUT    max X(q) W(low)/X(q) W(high)/X(q)  e(spline) 
   0     10    11.575   214.472    0.12E-03    0.51E-03    0.36E-05
   0     10    11.575   163.224    0.12E-03    0.51E-03    0.36E-05
   0     10    11.575     0.672    0.22E-03    0.83E-03    0.56E-05
   1      9    11.575     2.978    0.13E-04    0.16E-04    0.12E-06
   1      9    11.575     2.423    0.91E-04    0.11E-03    0.33E-06
   2      9    11.575     2.026    0.29E-04    0.65E-04    0.23E-06
   2      9    11.575     2.119    0.11E-03    0.87E-04    0.33E-06
  PAW_PBE O_GW_new 19Mar2012            :
 energy of atom  1       EATOM= -432.3788
 kinetic energy error for atom=    0.0246 (will be added to EATOM!!)
  PAW_PBE C_GW_new 19Mar2012            :
 energy of atom  2       EATOM= -147.1560
 kinetic energy error for atom=    0.0071 (will be added to EATOM!!)
 
 
 POSCAR: C  O                                    
  positions in direct lattice
  velocities in cartesian coordinates
 exchange correlation table for  LEXCH =        8
   RHO(1)=    0.500       N(1)  =     2000
   RHO(2)=  100.500       N(2)  =     4000

 VTST: version 3.2, (02/03/18)

 CHAIN: initializing optimizer
 
 OPT: Using VASP Conjugate-Gradient optimizer
 CHAIN: Read ICHAIN            0
 
 POSCAR: C  O                                    
  positions in direct lattice
  velocities in cartesian coordinates
 


--------------------------------------------------------------------------------------------------------


 ion  position               nearest neighbor table
   1  0.480  0.475  0.604-
   2  0.609  0.619  0.540-
 

IMPORTANT INFORMATION: All symmetrisations will be switched off!
NOSYMM: (Re-)initialisation of all symmetry stuff for point group C_1.

 
 
 KPOINTS: mof                                     

Automatic generation of k-mesh.
Space group operators:
 irot       det(A)        alpha          n_x          n_y          n_z        tau_x        tau_y        tau_z
    1     1.000000     0.000000     1.000000     0.000000     0.000000     0.000000     0.000000     0.000000
 
 Subroutine IBZKPT returns following result:
 ===========================================
 
 Found      1 irreducible k-points:
 
 Following reciprocal coordinates:
            Coordinates               Weight
  0.000000  0.000000  0.000000      1.000000
 
 Following cartesian coordinates:
            Coordinates               Weight
  0.000000  0.000000  0.000000      1.000000
 


--------------------------------------------------------------------------------------------------------




 Dimension of arrays:
   k-points           NKPTS =      1   k-points in BZ     NKDIM =      1   number of bands    NBANDS=     12
   number of dos      NEDOS =    301   number of ions     NIONS =      2
   non local maximal  LDIM  =      8   non local SUM 2l+1 LMDIM =     22
   total plane-waves  NPLWV = ******
   max r-space proj   IRMAX =   6341   max aug-charges    IRDMAX=   4656
   dimension x,y,z NGX =   224 NGY =  224 NGZ =  224
   dimension x,y,z NGXF=   448 NGYF=  448 NGZF=  448
   support grid    NGXF=   448 NGYF=  448 NGZF=  448
   ions per type =               1   1
   NGX,Y,Z   is equivalent  to a cutoff of  12.41, 12.41, 12.41 a.u.
   NGXF,Y,Z  is equivalent  to a cutoff of  24.83, 24.83, 24.83 a.u.

 SYSTEM =  Co–organic framework                  
 POSCAR =  C  O                                    

 Startparameter for this run:
   NWRITE =      2    write-flag & timer
   PREC   = accura    normal or accurate (medium, high low for compatibility)
   ISTART =      0    job   : 0-new  1-cont  2-samecut
   ICHARG =      2    charge: 1-file 2-atom 10-const
   ISPIN  =      2    spin polarized calculation?
   LNONCOLLINEAR =      F non collinear calculations
   LSORBIT =      F    spin-orbit coupling
   INIWAV =      1    electr: 0-lowe 1-rand  2-diag
   LASPH  =      F    aspherical Exc in radial PAW
   METAGGA=      F    non-selfconsistent MetaGGA calc.

 Electronic Relaxation 1
   ENCUT  =  520.0 eV  38.22 Ry    6.18 a.u.  55.78 55.78 55.78*2*pi/ulx,y,z
   ENINI  =  520.0     initial cutoff
   ENAUG  = 1213.9 eV  augmentation charge cutoff
   NELM   =    100;   NELMIN=  5; NELMDL=  0     # of ELM steps 
   EDIFF  = 0.1E-05   stopping-criterion for ELM
   LREAL  =      T    real-space projection
   NLSPLINE    = F    spline interpolate recip. space projectors
   LCOMPAT=      F    compatible to vasp.4.4
   GGA_COMPAT  = T    GGA compatible to vasp.4.4-vasp.4.6
   LMAXPAW     = -100 max onsite density
   LMAXMIX     =    2 max onsite mixed and CHGCAR
   VOSKOWN=      0    Vosko Wilk Nusair interpolation
   ROPT   =   -0.00025  -0.00025
 Ionic relaxation
   EDIFFG = -.5E-02   stopping-criterion for IOM
   NSW    =   1000    number of steps for IOM
   NBLOCK =      1;   KBLOCK =   1000    inner block; outer block 
   IBRION =      2    ionic relax: 0-MD 1-quasi-New 2-CG
   NFREE  =      1    steps in history (QN), initial steepest desc. (CG)
   ISIF   =      2    stress and relaxation
   IWAVPR =     11    prediction:  0-non 1-charg 2-wave 3-comb
   ISYM   =      0    0-nonsym 1-usesym 2-fastsym
   LCORR  =      T    Harris-Foulkes like correction to forces

   POTIM  = 0.5000    time-step for ionic-motion
   TEIN   =    0.0    initial temperature
   TEBEG  =    0.0;   TEEND  =   0.0 temperature during run
   SMASS  =  -3.00    Nose mass-parameter (am)
   estimated Nose-frequenzy (Omega)   =  0.10E-29 period in steps =****** mass=  -0.206E-25a.u.
   SCALEE = 1.0000    scale energy and forces
   NPACO  =    256;   APACO  = 16.0  distance and # of slots for P.C.
   PSTRESS=    0.0 pullay stress

  Mass of Ions in am
   POMASS =  16.00 12.01
  Ionic Valenz
   ZVAL   =   6.00  4.00
  Atomic Wigner-Seitz radii
   RWIGS  =  -1.00 -1.00
  virtual crystal weights 
   VCA    =   1.00  1.00
   NELECT =      10.0000    total number of electrons
   NUPDOWN=      -1.0000    fix difference up-down

 DOS related values:
   EMIN   =  10.00;   EMAX   =-10.00  energy-range for DOS
   EFERMI =   0.00
   ISMEAR =     0;   SIGMA  =   0.05  broadening in eV -4-tet -1-fermi 0-gaus

 Electronic relaxation 2 (details)
   IALGO  =     68    algorithm
   LDIAG  =      T    sub-space diagonalisation (order eigenvalues)
   LSUBROT=      F    optimize rotation matrix (better conditioning)
   TURBO    =      0    0=normal 1=particle mesh
   IRESTART =      0    0=no restart 2=restart with 2 vectors
   NREBOOT  =      0    no. of reboots
   NMIN     =      0    reboot dimension
   EREF     =   0.00    reference energy to select bands
   IMIX   =      4    mixing-type and parameters
     AMIX     =   0.40;   BMIX     =  1.00
     AMIX_MAG =   1.60;   BMIX_MAG =  1.00
     AMIN     =   0.10
     WC   =   100.;   INIMIX=   1;  MIXPRE=   1;  MAXMIX= -45

 Intra band minimization:
   WEIMIN = 0.0010     energy-eigenvalue tresh-hold
   EBREAK =  0.21E-07  absolut break condition
   DEPER  =   0.30     relativ break condition  

   TIME   =   0.40     timestep for ELM

  volume/ion in A,a.u.               =   13500.00     91102.50
  Fermi-wavevector in a.u.,A,eV,Ry     =   0.117567  0.222170  0.188061  0.013822
  Thomas-Fermi vector in A             =   0.731135
 
 Write flags
   LWAVE        =      F    write WAVECAR
   LDOWNSAMPLE  =      F    k-point downsampling of WAVECAR
   LCHARG       =      T    write CHGCAR
   LVTOT        =      F    write LOCPOT, total local potential
   LVHAR        =      F    write LOCPOT, Hartree potential only
   LELF         =      F    write electronic localiz. function (ELF)
   LORBIT       =      0    0 simple, 1 ext, 2 COOP (PROOUT), +10 PAW based schemes


 Dipole corrections
   LMONO  =      F    monopole corrections only (constant potential shift)
   LDIPOL =      F    correct potential (dipole corrections)
   IDIPOL =      0    1-x, 2-y, 3-z, 4-all directions 
   EPSILON=  1.0000000 bulk dielectric constant

 Exchange correlation treatment:
   GGA     =    --    GGA type
   LEXCH   =     8    internal setting for exchange type
   VOSKOWN=      0    Vosko Wilk Nusair interpolation
   LHFCALC =     F    Hartree Fock is set to
   LHFONE  =     F    Hartree Fock one center treatment
   AEXX    =    0.0000 exact exchange contribution

 Linear response parameters
   LEPSILON=     F    determine dielectric tensor
   LRPA    =     F    only Hartree local field effects (RPA)
   LNABLA  =     F    use nabla operator in PAW spheres
   LVEL    =     F    velocity operator in full k-point grid
   LINTERFAST=   F  fast interpolation
   KINTER  =     0    interpolate to denser k-point grid
   CSHIFT  =0.1000    complex shift for real part using Kramers Kronig
   OMEGAMAX=  -1.0    maximum frequency
   DEG_THRESHOLD= 0.2000000E-02 threshold for treating states as degnerate
   RTIME   =   -0.100 relaxation time in fs
  (WPLASMAI=    0.000 imaginary part of plasma frequency in eV, 0.658/RTIME)
   DFIELD  = 0.0000000 0.0000000 0.0000000 field for delta impulse in time
 
 Orbital magnetization related:
   ORBITALMAG=     F  switch on orbital magnetization
   LCHIMAG   =     F  perturbation theory with respect to B field
   DQ        =  0.001000  dq finite difference perturbation B field
   LLRAUG    =     F  two centre corrections for induced B field



--------------------------------------------------------------------------------------------------------


 conjugate gradient relaxation of ions
 charge density and potential will be updated during run
 spin polarized calculation
 RMM-DIIS sequential band-by-band and
  variant of blocked Davidson during initial phase
 perform sub-space diagonalisation
    before iterative eigenvector-optimisation
 modified Broyden-mixing scheme, WC =      100.0
 initial mixing is a Kerker type mixing with AMIX =  0.4000 and BMIX =      1.0000
 Hartree-type preconditioning will be used
 using additional bands            7
 real space projection scheme for non local part
 use partial core corrections
 calculate Harris-corrections to forces 
   (improved forces if not selfconsistent)
 use gradient corrections 
 use of overlap-Matrix (Vanderbilt PP)
 Gauss-broadening in eV      SIGMA  =   0.05


--------------------------------------------------------------------------------------------------------


  energy-cutoff  :      520.00
  volume of cell :    27000.00
      direct lattice vectors                 reciprocal lattice vectors
    30.000000000  0.000000000  0.000000000     0.033333333  0.000000000  0.000000000
     0.000000000 30.000000000  0.000000000     0.000000000  0.033333333  0.000000000
     0.000000000  0.000000000 30.000000000     0.000000000  0.000000000  0.033333333

  length of vectors
    30.000000000 30.000000000 30.000000000     0.033333333  0.033333333  0.033333333


 
 k-points in units of 2pi/SCALE and weight: mof                                     
   0.00000000  0.00000000  0.00000000       1.000
 
 k-points in reciprocal lattice and weights: mof                                     
   0.00000000  0.00000000  0.00000000       1.000
 
 position of ions in fractional coordinates (direct lattice) 
   0.47980337  0.47486042  0.60390684
   0.60883563  0.61941158  0.53965116
 
 position of ions in cartesian coordinates  (Angst):
  14.39410113 14.24581257 18.11720517
  18.26506887 18.58234744 16.18953483
 


--------------------------------------------------------------------------------------------------------


 k-point  1 :   0.0000 0.0000 0.0000  plane waves:  727055

 maximum and minimum number of plane-waves per node :    181799   181736

 maximum number of plane-waves:    727055
 maximum index in each direction: 
   IXMAX=   55   IYMAX=   55   IZMAX=   55
   IXMIN=  -55   IYMIN=  -55   IZMIN=  -55


 real space projection operators:
  total allocation   :       1741.91 KBytes
  max/ min on nodes  :        439.75        432.53


 parallel 3D FFT for wavefunctions:
    minimum data exchange during FFTs selected (reduces bandwidth)
 parallel 3D FFT for charge:
    minimum data exchange during FFTs selected (reduces bandwidth)


 total amount of memory used by VASP MPI-rank0   784908. kBytes
=======================================================================

   base      :      30000. kBytes
   nonlr-proj:        750. kBytes
   fftplans  :     211127. kBytes
   grid      :     531349. kBytes
   one-center:         46. kBytes
   wavefun   :      11636. kBytes
 
     INWAV:  cpu time    0.0000: real time    0.0001
 Broyden mixing: mesh for mixing (old mesh)
   NGX =111   NGY =111   NGZ =111
  (NGX  =448   NGY  =448   NGZ  =448)
  gives a total of ****** points

 initial charge density was supplied:
 charge density of overlapping atoms calculated
 number of electron      10.0000000 magnetization       0.0000000
 keeping initial charge density in first step


--------------------------------------------------------------------------------------------------------


 Maximum index for non-local projection operator         1515
 Maximum index for augmentation-charges          319 (set IRDMAX)


--------------------------------------------------------------------------------------------------------


 First call to EWALD:  gamma=   0.059
 Maximum number of real-space cells 3x 3x 3
 Maximum number of reciprocal cells 3x 3x 3

    FEWALD:  cpu time    0.0020: real time    0.0022


--------------------------------------- Iteration      1(   1)  ---------------------------------------


    POTLOK:  cpu time    8.6747: real time    8.6759
    SETDIJ:  cpu time    0.0610: real time    0.0602
     EDDAV:  cpu time    7.9758: real time    7.9766
       DOS:  cpu time    0.0010: real time    0.0004
    --------------------------------------------
      LOOP:  cpu time   16.7125: real time   16.7133

 eigenvalue-minimisations  :    96
 total energy-change (2. order) : 0.6283172E+02  (-0.1286332E+03)
 number of electron      10.0000000 magnetization       0.0000000
 augmentation part       10.0000000 magnetization       0.0000000

 Free energy of the ion-electron system (eV)
  ---------------------------------------------------
  alpha Z        PSCENC =         0.00563328
  Ewald energy   TEWEN  =       -10.68537377
  -Hartree energ DENC   =      -482.11065285
  -exchange      EXHF   =         0.00000000
  -V(xc)+E(xc)   XCENC  =        29.02661077
  PAW double counting   =       463.69512993     -457.43959568
  entropy T*S    EENTRO =        -0.06089022
  eigenvalues    EBANDS =       -59.10227058
  atomic energy  EATOM  =       579.50312721
  Solvation  Ediel_sol  =         0.00000000
  ---------------------------------------------------
  free energy    TOTEN  =        62.83171809 eV

  energy without entropy =       62.89260830  energy(sigma->0) =       62.86216319


--------------------------------------------------------------------------------------------------------




--------------------------------------- Iteration      1(   2)  ---------------------------------------


     EDDAV:  cpu time    6.2411: real time    6.2539
       DOS:  cpu time    0.0000: real time    0.0005
    --------------------------------------------
      LOOP:  cpu time    6.2411: real time    6.2545

 eigenvalue-minimisations  :    72
 total energy-change (2. order) :-0.2602682E+02  (-0.2578462E+02)
 number of electron      10.0000000 magnetization       0.0000000
 augmentation part       10.0000000 magnetization       0.0000000

 Free energy of the ion-electron system (eV)
  ---------------------------------------------------
  alpha Z        PSCENC =         0.00563328
  Ewald energy   TEWEN  =       -10.68537377
  -Hartree energ DENC   =      -482.11065285
  -exchange      EXHF   =         0.00000000
  -V(xc)+E(xc)   XCENC  =        29.02661077
  PAW double counting   =       463.69512993     -457.43959568
  entropy T*S    EENTRO =        -0.00990920
  eigenvalues    EBANDS =       -85.18007182
  atomic energy  EATOM  =       579.50312721
  Solvation  Ediel_sol  =         0.00000000
  ---------------------------------------------------
  free energy    TOTEN  =        36.80489787 eV

  energy without entropy =       36.81480707  energy(sigma->0) =       36.80985247


--------------------------------------------------------------------------------------------------------




--------------------------------------- Iteration      1(   3)  ---------------------------------------


     EDDAV:  cpu time    7.9098: real time    7.9394
       DOS:  cpu time    0.0000: real time    0.0004
    --------------------------------------------
      LOOP:  cpu time    7.9098: real time    7.9398

 eigenvalue-minimisations  :    96
 total energy-change (2. order) :-0.3213899E+02  (-0.3069414E+02)
 number of electron      10.0000000 magnetization       0.0000000
 augmentation part       10.0000000 magnetization       0.0000000

 Free energy of the ion-electron system (eV)
  ---------------------------------------------------
  alpha Z        PSCENC =         0.00563328
  Ewald energy   TEWEN  =       -10.68537377
  -Hartree energ DENC   =      -482.11065285
  -exchange      EXHF   =         0.00000000
  -V(xc)+E(xc)   XCENC  =        29.02661077
  PAW double counting   =       463.69512993     -457.43959568
  entropy T*S    EENTRO =        -0.00000000
  eigenvalues    EBANDS =      -117.32897417
  atomic energy  EATOM  =       579.50312721
  Solvation  Ediel_sol  =         0.00000000
  ---------------------------------------------------
  free energy    TOTEN  =         4.66590472 eV

  energy without entropy =        4.66590472  energy(sigma->0) =        4.66590472


--------------------------------------------------------------------------------------------------------




--------------------------------------- Iteration      1(   4)  ---------------------------------------


     EDDAV:  cpu time    4.5523: real time    4.5704
       DOS:  cpu time    0.0010: real time    0.0005
    --------------------------------------------
      LOOP:  cpu time    4.5533: real time    4.5709

 eigenvalue-minimisations  :    48
 total energy-change (2. order) :-0.1184215E+02  (-0.1184215E+02)
 number of electron      10.0000000 magnetization       0.0000000
 augmentation part       10.0000000 magnetization       0.0000000

 Free energy of the ion-electron system (eV)
  ---------------------------------------------------
  alpha Z        PSCENC =         0.00563328
  Ewald energy   TEWEN  =       -10.68537377
  -Hartree energ DENC   =      -482.11065285
  -exchange      EXHF   =         0.00000000
  -V(xc)+E(xc)   XCENC  =        29.02661077
  PAW double counting   =       463.69512993     -457.43959568
  entropy T*S    EENTRO =        -0.00000000
  eigenvalues    EBANDS =      -129.17112005
  atomic energy  EATOM  =       579.50312721
  Solvation  Ediel_sol  =         0.00000000
  ---------------------------------------------------
  free energy    TOTEN  =        -7.17624116 eV

  energy without entropy =       -7.17624116  energy(sigma->0) =       -7.17624116


--------------------------------------------------------------------------------------------------------




--------------------------------------- Iteration      1(   5)  ---------------------------------------


     EDDAV:  cpu time    4.5603: real time    4.5645
       DOS:  cpu time    0.0010: real time    0.0009
    CHARGE:  cpu time    1.0628: real time    1.0627
    MIXING:  cpu time    0.1480: real time    0.1489
    --------------------------------------------
      LOOP:  cpu time    5.7731: real time    5.7771

 eigenvalue-minimisations  :    48
 total energy-change (2. order) :-0.3095615E+00  (-0.3095615E+00)
 number of electron       9.9999997 magnetization      -0.0000000
 augmentation part        0.7432640 magnetization      -0.0005518

 Broyden mixing:
  rms(total) = 0.14782E+01    rms(broyden)= 0.14778E+01
  rms(prec ) = 0.16498E+01
  weight for this iteration     100.00

 Free energy of the ion-electron system (eV)
  ---------------------------------------------------
  alpha Z        PSCENC =         0.00563328
  Ewald energy   TEWEN  =       -10.68537377
  -Hartree energ DENC   =      -482.11065285
  -exchange      EXHF   =         0.00000000
  -V(xc)+E(xc)   XCENC  =        29.02661077
  PAW double counting   =       463.69512993     -457.43959568
  entropy T*S    EENTRO =        -0.00000000
  eigenvalues    EBANDS =      -129.48068151
  atomic energy  EATOM  =       579.50312721
  Solvation  Ediel_sol  =         0.00000000
  ---------------------------------------------------
  free energy    TOTEN  =        -7.48580262 eV

  energy without entropy =       -7.48580262  energy(sigma->0) =       -7.48580262


--------------------------------------------------------------------------------------------------------




--------------------------------------- Iteration      1(   6)  ---------------------------------------


    POTLOK:  cpu time    8.7367: real time    8.7409
    SETDIJ:  cpu time    0.0600: real time    0.0608
    EDDIAG:  cpu time    1.0978: real time    1.0987
  RMM-DIIS:  cpu time    3.7724: real time    3.7728
    ORTHCH:  cpu time    0.0460: real time    0.0472
       DOS:  cpu time    0.0010: real time    0.0006
    CHARGE:  cpu time    1.0508: real time    1.0508
    MIXING:  cpu time    0.1540: real time    0.1539
    --------------------------------------------
      LOOP:  cpu time   14.9177: real time   14.9256

 eigenvalue-minimisations  :    48
 total energy-change (2. order) :-0.3374304E+02  (-0.1944108E+01)
 number of electron      10.0000003 magnetization      -0.0000000
 augmentation part       -0.0111200 magnetization       0.0002583

 Broyden mixing:
  rms(total) = 0.37644E+01    rms(broyden)= 0.37637E+01
  rms(prec ) = 0.41422E+01
  weight for this iteration     100.00

 eigenvalues of (default mixing * dielectric matrix)
  average eigenvalue GAMMA=   0.2792
  0.2792

 Free energy of the ion-electron system (eV)
  ---------------------------------------------------
  alpha Z        PSCENC =         0.00563328
  Ewald energy   TEWEN  =       -10.68537377
  -Hartree energ DENC   =      -518.27879360
  -exchange      EXHF   =         0.00000000
  -V(xc)+E(xc)   XCENC  =        30.78029522
  PAW double counting   =       501.17650283     -494.89433695
  entropy T*S    EENTRO =        -0.00000000
  eigenvalues    EBANDS =      -128.83589821
  atomic energy  EATOM  =       579.50312721
  Solvation  Ediel_sol  =         0.00000000
  ---------------------------------------------------
  free energy    TOTEN  =       -41.22884398 eV

  energy without entropy =      -41.22884398  energy(sigma->0) =      -41.22884398


--------------------------------------------------------------------------------------------------------




--------------------------------------- Iteration      1(   7)  ---------------------------------------


    POTLOK:  cpu time    8.7387: real time    8.7432
    SETDIJ:  cpu time    0.0630: real time    0.0631
    EDDIAG:  cpu time    1.0988: real time    1.0992
  RMM-DIIS:  cpu time    3.9424: real time    3.9423
    ORTHCH:  cpu time    0.0460: real time    0.0466
       DOS:  cpu time    0.0010: real time    0.0004
    CHARGE:  cpu time    1.2688: real time    1.2686
    MIXING:  cpu time    0.1590: real time    0.1600
    --------------------------------------------
      LOOP:  cpu time   15.3177: real time   15.3235

 eigenvalue-minimisations  :    49
 total energy-change (2. order) : 0.3984490E+02  (-0.5475303E+00)
 number of electron      10.0000002 magnetization      -0.0000086
 augmentation part       -0.0610039 magnetization      -0.0005147

 Broyden mixing:
  rms(total) = 0.32181E+01    rms(broyden)= 0.32180E+01
  rms(prec ) = 0.35771E+01
  weight for this iteration     100.00

 eigenvalues of (default mixing * dielectric matrix)
  average eigenvalue GAMMA=   0.3455
  0.3455  0.3455

 Free energy of the ion-electron system (eV)
  ---------------------------------------------------
  alpha Z        PSCENC =         0.00563328
  Ewald energy   TEWEN  =       -10.68537377
  -Hartree energ DENC   =      -494.34014525
  -exchange      EXHF   =         0.00000000
  -V(xc)+E(xc)   XCENC  =        29.66419620
  PAW double counting   =       473.89399781     -467.69022038
  entropy T*S    EENTRO =        -0.00084707
  eigenvalues    EBANDS =      -111.73430925
  atomic energy  EATOM  =       579.50312721
  Solvation  Ediel_sol  =         0.00000000
  ---------------------------------------------------
  free energy    TOTEN  =        -1.38394122 eV

  energy without entropy =       -1.38309415  energy(sigma->0) =       -1.38351768


--------------------------------------------------------------------------------------------------------




--------------------------------------- Iteration      1(   8)  ---------------------------------------


    POTLOK:  cpu time    8.7507: real time    8.7538
    SETDIJ:  cpu time    0.0600: real time    0.0606
    EDDIAG:  cpu time    1.1058: real time    1.1062
  RMM-DIIS:  cpu time    4.1804: real time    4.1791
    ORTHCH:  cpu time    0.0450: real time    0.0464
       DOS:  cpu time    0.0010: real time    0.0004
    CHARGE:  cpu time    1.0508: real time    1.0511
    MIXING:  cpu time    0.1660: real time    0.1663
    --------------------------------------------
      LOOP:  cpu time   15.3597: real time   15.3639

 eigenvalue-minimisations  :    52
 total energy-change (2. order) :-0.5405760E+01  (-0.4954835E+00)
 number of electron       9.9999997 magnetization      -0.0000137
 augmentation part        0.7197230 magnetization      -0.0001355

 Broyden mixing:
  rms(total) = 0.14067E+01    rms(broyden)= 0.14047E+01
  rms(prec ) = 0.15771E+01
  weight for this iteration     100.00

 eigenvalues of (default mixing * dielectric matrix)
  average eigenvalue GAMMA=   0.6566
  1.3780  0.2959  0.2959

 Free energy of the ion-electron system (eV)
  ---------------------------------------------------
  alpha Z        PSCENC =         0.00563328
  Ewald energy   TEWEN  =       -10.68537377
  -Hartree energ DENC   =      -484.00586391
  -exchange      EXHF   =         0.00000000
  -V(xc)+E(xc)   XCENC  =        29.17939814
  PAW double counting   =       461.11819528     -454.89884210
  entropy T*S    EENTRO =        -0.00000000
  eigenvalues    EBANDS =      -127.00597567
  atomic energy  EATOM  =       579.50312721
  Solvation  Ediel_sol  =         0.00000000
  ---------------------------------------------------
  free energy    TOTEN  =        -6.78970155 eV

  energy without entropy =       -6.78970155  energy(sigma->0) =       -6.78970155


--------------------------------------------------------------------------------------------------------




--------------------------------------- Iteration      1(   9)  ---------------------------------------


    POTLOK:  cpu time    8.7407: real time    8.7452
    SETDIJ:  cpu time    0.0650: real time    0.0653
    EDDIAG:  cpu time    1.0988: real time    1.0998
  RMM-DIIS:  cpu time    4.3503: real time    4.3502
    ORTHCH:  cpu time    0.0460: real time    0.0463
       DOS:  cpu time    0.0000: real time    0.0006
    CHARGE:  cpu time    1.0538: real time    1.0541
    MIXING:  cpu time    0.1730: real time    0.1738
    --------------------------------------------
      LOOP:  cpu time   15.5286: real time   15.5355

 eigenvalue-minimisations  :    54
 total energy-change (2. order) : 0.1634679E+01  (-0.3118514E-01)
 number of electron       9.9999997 magnetization      -0.0000203
 augmentation part        0.7253350 magnetization       0.0000395

 Broyden mixing:
  rms(total) = 0.14064E+01    rms(broyden)= 0.14063E+01
  rms(prec ) = 0.15754E+01
  weight for this iteration     100.00

 eigenvalues of (default mixing * dielectric matrix)
  average eigenvalue GAMMA=   0.8685
  2.2430  0.2960  0.2960  0.6388

 Free energy of the ion-electron system (eV)
  ---------------------------------------------------
  alpha Z        PSCENC =         0.00563328
  Ewald energy   TEWEN  =       -10.68537377
  -Hartree energ DENC   =      -485.86961401
  -exchange      EXHF   =         0.00000000
  -V(xc)+E(xc)   XCENC  =        29.20655494
  PAW double counting   =       459.79866549     -453.60035411
  entropy T*S    EENTRO =        -0.00000000
  eigenvalues    EBANDS =      -123.51366160
  atomic energy  EATOM  =       579.50312721
  Solvation  Ediel_sol  =         0.00000000
  ---------------------------------------------------
  free energy    TOTEN  =        -5.15502259 eV

  energy without entropy =       -5.15502259  energy(sigma->0) =       -5.15502259


--------------------------------------------------------------------------------------------------------




--------------------------------------- Iteration      1(  10)  ---------------------------------------


    POTLOK:  cpu time    8.7347: real time    8.7409
    SETDIJ:  cpu time    0.0610: real time    0.0603
    EDDIAG:  cpu time    1.1048: real time    1.1054
  RMM-DIIS:  cpu time    4.4493: real time    4.4490
    ORTHCH:  cpu time    0.0450: real time    0.0464
       DOS:  cpu time    0.0010: real time    0.0004
    CHARGE:  cpu time    1.0538: real time    1.0531
    MIXING:  cpu time    0.1840: real time    0.1850
    --------------------------------------------
      LOOP:  cpu time   15.6336: real time   15.6406

 eigenvalue-minimisations  :    54
 total energy-change (2. order) : 0.2143376E+01  (-0.1470041E-01)
 number of electron       9.9999997 magnetization      -0.0000194
 augmentation part        0.7066971 magnetization       0.0000208

 Broyden mixing:
  rms(total) = 0.13329E+01    rms(broyden)= 0.13329E+01
  rms(prec ) = 0.14992E+01
  weight for this iteration     100.00

 eigenvalues of (default mixing * dielectric matrix)
  average eigenvalue GAMMA=   1.0288
  2.4207  1.5176  0.2973  0.2973  0.6110

 Free energy of the ion-electron system (eV)
  ---------------------------------------------------
  alpha Z        PSCENC =         0.00563328
  Ewald energy   TEWEN  =       -10.68537377
  -Hartree energ DENC   =      -489.03675609
  -exchange      EXHF   =         0.00000000
  -V(xc)+E(xc)   XCENC  =        29.35796004
  PAW double counting   =       461.73381080     -455.55127082
  entropy T*S    EENTRO =        -0.00000000
  eigenvalues    EBANDS =      -118.33877695
  atomic energy  EATOM  =       579.50312721
  Solvation  Ediel_sol  =         0.00000000
  ---------------------------------------------------
  free energy    TOTEN  =        -3.01164632 eV

  energy without entropy =       -3.01164632  energy(sigma->0) =       -3.01164632


--------------------------------------------------------------------------------------------------------




--------------------------------------- Iteration      1(  11)  ---------------------------------------


    POTLOK:  cpu time    8.7387: real time    8.7396
    SETDIJ:  cpu time    0.0600: real time    0.0606
    EDDIAG:  cpu time    1.1038: real time    1.1049
  RMM-DIIS:  cpu time    3.7784: real time    3.7789
    ORTHCH:  cpu time    0.0460: real time    0.0462
       DOS:  cpu time    0.0010: real time    0.0004
    CHARGE:  cpu time    1.0478: real time    1.0486
    MIXING:  cpu time    0.1930: real time    0.1923
    --------------------------------------------
      LOOP:  cpu time   14.9677: real time   14.9715

 eigenvalue-minimisations  :    48
 total energy-change (2. order) :-0.5002315E+00  (-0.3516443E-03)
 number of electron       9.9999997 magnetization      -0.0000251
 augmentation part        0.7090847 magnetization       0.0000191

 Broyden mixing:
  rms(total) = 0.13440E+01    rms(broyden)= 0.13440E+01
  rms(prec ) = 0.15111E+01
  weight for this iteration     100.00

 eigenvalues of (default mixing * dielectric matrix)
  average eigenvalue GAMMA=   0.8517
  2.4198  1.4665  0.2973  0.2973  0.6117  0.0173

 Free energy of the ion-electron system (eV)
  ---------------------------------------------------
  alpha Z        PSCENC =         0.00563328
  Ewald energy   TEWEN  =       -10.68537377
  -Hartree energ DENC   =      -488.47108107
  -exchange      EXHF   =         0.00000000
  -V(xc)+E(xc)   XCENC  =        29.33933211
  PAW double counting   =       461.39518361     -455.21271895
  entropy T*S    EENTRO =        -0.00000000
  eigenvalues    EBANDS =      -119.38598020
  atomic energy  EATOM  =       579.50312721
  Solvation  Ediel_sol  =         0.00000000
  ---------------------------------------------------
  free energy    TOTEN  =        -3.51187778 eV

  energy without entropy =       -3.51187778  energy(sigma->0) =       -3.51187778


--------------------------------------------------------------------------------------------------------




--------------------------------------- Iteration      1(  12)  ---------------------------------------


    POTLOK:  cpu time    8.7317: real time    8.7368
    SETDIJ:  cpu time    0.0640: real time    0.0647
    EDDIAG:  cpu time    1.1018: real time    1.1019
  RMM-DIIS:  cpu time    4.3413: real time    4.3425
    ORTHCH:  cpu time    0.0470: real time    0.0462
       DOS:  cpu time    0.0000: real time    0.0006
    CHARGE:  cpu time    1.2718: real time    1.2724
    MIXING:  cpu time    0.2010: real time    0.2011
    --------------------------------------------
      LOOP:  cpu time   15.7586: real time   15.7664

 eigenvalue-minimisations  :    54
 total energy-change (2. order) : 0.2166617E+01  (-0.3626094E-01)
 number of electron      10.0000002 magnetization      -0.0000029
 augmentation part       -0.0719492 magnetization      -0.0005295

 Broyden mixing:
  rms(total) = 0.31162E+01    rms(broyden)= 0.31152E+01
  rms(prec ) = 0.34791E+01
  weight for this iteration     100.00

 eigenvalues of (default mixing * dielectric matrix)
  average eigenvalue GAMMA=   0.9543
  2.3961  1.3000  1.3000  0.2981  0.2981  0.6485  0.4393

 Free energy of the ion-electron system (eV)
  ---------------------------------------------------
  alpha Z        PSCENC =         0.00563328
  Ewald energy   TEWEN  =       -10.68537377
  -Hartree energ DENC   =      -492.28886275
  -exchange      EXHF   =         0.00000000
  -V(xc)+E(xc)   XCENC  =        29.45726162
  PAW double counting   =       460.92740729     -454.73740254
  entropy T*S    EENTRO =        -0.00079887
  eigenvalues    EBANDS =      -113.52625230
  atomic energy  EATOM  =       579.50312721
  Solvation  Ediel_sol  =         0.00000000
  ---------------------------------------------------
  free energy    TOTEN  =        -1.34526082 eV

  energy without entropy =       -1.34446195  energy(sigma->0) =       -1.34486138


--------------------------------------------------------------------------------------------------------




--------------------------------------- Iteration      1(  13)  ---------------------------------------


    POTLOK:  cpu time    8.7347: real time    8.7433
    SETDIJ:  cpu time    0.0610: real time    0.0610
    EDDIAG:  cpu time    1.1018: real time    1.1039
  RMM-DIIS:  cpu time    3.7864: real time    3.7863
    ORTHCH:  cpu time    0.0450: real time    0.0460
       DOS:  cpu time    0.0010: real time    0.0005
    CHARGE:  cpu time    1.2628: real time    1.2634
    MIXING:  cpu time    0.2180: real time    0.2173
    --------------------------------------------
      LOOP:  cpu time   15.2107: real time   15.2217

 eigenvalue-minimisations  :    48
 total energy-change (2. order) : 0.3737465E+00  (-0.4203644E-02)
 number of electron       9.9999997 magnetization       0.0000020
 augmentation part        0.6987571 magnetization       0.0000154

 Broyden mixing:
  rms(total) = 0.12966E+01    rms(broyden)= 0.12951E+01
  rms(prec ) = 0.14559E+01
  weight for this iteration     100.00

 eigenvalues of (default mixing * dielectric matrix)
  average eigenvalue GAMMA=   0.9662
  2.4207  1.6034  1.6034  0.2982  0.2982  0.6207  0.4427  0.4427

 Free energy of the ion-electron system (eV)
  ---------------------------------------------------
  alpha Z        PSCENC =         0.00563328
  Ewald energy   TEWEN  =       -10.68537377
  -Hartree energ DENC   =      -489.93483751
  -exchange      EXHF   =         0.00000000
  -V(xc)+E(xc)   XCENC  =        29.33606157
  PAW double counting   =       458.95915258     -452.75243104
  entropy T*S    EENTRO =        -0.00000093
  eigenvalues    EBANDS =      -115.40284574
  atomic energy  EATOM  =       579.50312721
  Solvation  Ediel_sol  =         0.00000000
  ---------------------------------------------------
  free energy    TOTEN  =        -0.97151436 eV

  energy without entropy =       -0.97151343  energy(sigma->0) =       -0.97151390


--------------------------------------------------------------------------------------------------------




--------------------------------------- Iteration      1(  14)  ---------------------------------------


    POTLOK:  cpu time    8.7347: real time    8.7394
    SETDIJ:  cpu time    0.0600: real time    0.0606
    EDDIAG:  cpu time    1.1038: real time    1.1049
  RMM-DIIS:  cpu time    3.7344: real time    3.7346
    ORTHCH:  cpu time    0.0460: real time    0.0462
       DOS:  cpu time    0.0010: real time    0.0006
    CHARGE:  cpu time    1.2698: real time    1.2714
    MIXING:  cpu time    0.2260: real time    0.2260
    --------------------------------------------
      LOOP:  cpu time   15.1767: real time   15.1837

 eigenvalue-minimisations  :    48
 total energy-change (2. order) : 0.2270032E+00  (-0.3539736E-03)
 number of electron       9.9999997 magnetization       0.0001288
 augmentation part        0.6968696 magnetization      -0.0006869

 Broyden mixing:
  rms(total) = 0.12900E+01    rms(broyden)= 0.12900E+01
  rms(prec ) = 0.14485E+01
  weight for this iteration     100.00

 eigenvalues of (default mixing * dielectric matrix)
  average eigenvalue GAMMA=   1.1193
  2.5211  2.2991  2.2991  0.2981  0.2981  0.5713  0.5713  0.6078  0.6078

 Free energy of the ion-electron system (eV)
  ---------------------------------------------------
  alpha Z        PSCENC =         0.00563328
  Ewald energy   TEWEN  =       -10.68537377
  -Hartree energ DENC   =      -489.71350436
  -exchange      EXHF   =         0.00000000
  -V(xc)+E(xc)   XCENC  =        29.27512608
  PAW double counting   =       457.75787126     -451.55229905
  entropy T*S    EENTRO =        -0.00255129
  eigenvalues    EBANDS =      -115.33254050
  atomic energy  EATOM  =       579.50312721
  Solvation  Ediel_sol  =         0.00000000
  ---------------------------------------------------
  free energy    TOTEN  =        -0.74451113 eV

  energy without entropy =       -0.74195984  energy(sigma->0) =       -0.74323549


--------------------------------------------------------------------------------------------------------




--------------------------------------- Iteration      1(  15)  ---------------------------------------


    POTLOK:  cpu time    8.7457: real time    8.7474
    SETDIJ:  cpu time    0.0600: real time    0.0608
    EDDIAG:  cpu time    1.1018: real time    1.1035
  RMM-DIIS:  cpu time    4.6333: real time    4.6337
    ORTHCH:  cpu time    0.0450: real time    0.0465
       DOS:  cpu time    0.0010: real time    0.0005
    CHARGE:  cpu time    1.2698: real time    1.2701
    MIXING:  cpu time    0.2410: real time    0.2413
    --------------------------------------------
      LOOP:  cpu time   16.0976: real time   16.1038

 eigenvalue-minimisations  :    58
 total energy-change (2. order) :-0.5937500E+00  (-0.2599878E-02)
 number of electron      10.0000002 magnetization       0.0001178
 augmentation part       -0.0719309 magnetization       0.0000818

 Broyden mixing:
  rms(total) = 0.30978E+01    rms(broyden)= 0.30969E+01
  rms(prec ) = 0.34637E+01
  weight for this iteration     100.00

 eigenvalues of (default mixing * dielectric matrix)
  average eigenvalue GAMMA=   1.1130
  2.4754  2.4754  2.4783  0.2981  0.2981  0.7310  0.7310  0.6050  0.5190  0.5190

 Free energy of the ion-electron system (eV)
  ---------------------------------------------------
  alpha Z        PSCENC =         0.00563328
  Ewald energy   TEWEN  =       -10.68537377
  -Hartree energ DENC   =      -490.03227957
  -exchange      EXHF   =         0.00000000
  -V(xc)+E(xc)   XCENC  =        29.25879533
  PAW double counting   =       457.28922905     -451.08581467
  entropy T*S    EENTRO =        -0.00081656
  eigenvalues    EBANDS =      -115.59076142
  atomic energy  EATOM  =       579.50312721
  Solvation  Ediel_sol  =         0.00000000
  ---------------------------------------------------
  free energy    TOTEN  =        -1.33826113 eV

  energy without entropy =       -1.33744457  energy(sigma->0) =       -1.33785285


--------------------------------------------------------------------------------------------------------




--------------------------------------- Iteration      1(  16)  ---------------------------------------


    POTLOK:  cpu time    8.7387: real time    8.7411
    SETDIJ:  cpu time    0.0600: real time    0.0607
    EDDIAG:  cpu time    1.1018: real time    1.1024
  RMM-DIIS:  cpu time    4.3833: real time    4.3839
    ORTHCH:  cpu time    0.0470: real time    0.0464
       DOS:  cpu time    0.0000: real time    0.0006
    CHARGE:  cpu time    1.0538: real time    1.0534
    MIXING:  cpu time    0.2510: real time    0.2516
    --------------------------------------------
      LOOP:  cpu time   15.6356: real time   15.6401

 eigenvalue-minimisations  :    54
 total energy-change (2. order) :-0.1645253E+01  (-0.3305838E-01)
 number of electron       9.9999997 magnetization       0.0001129
 augmentation part        0.7241849 magnetization       0.0001003

 Broyden mixing:
  rms(total) = 0.14066E+01    rms(broyden)= 0.14051E+01
  rms(prec ) = 0.15663E+01
  weight for this iteration     100.00

 eigenvalues of (default mixing * dielectric matrix)
  average eigenvalue GAMMA=   1.1298
  2.6529  2.6529  2.5231  0.8861  0.8861  0.2981  0.2981  0.5439  0.5439  0.5714
  0.5714

 Free energy of the ion-electron system (eV)
  ---------------------------------------------------
  alpha Z        PSCENC =         0.00563328
  Ewald energy   TEWEN  =       -10.68537377
  -Hartree energ DENC   =      -486.33683234
  -exchange      EXHF   =         0.00000000
  -V(xc)+E(xc)   XCENC  =        29.13967561
  PAW double counting   =       457.59232658     -451.38060475
  entropy T*S    EENTRO =        -0.00000000
  eigenvalues    EBANDS =      -120.82146574
  atomic energy  EATOM  =       579.50312721
  Solvation  Ediel_sol  =         0.00000000
  ---------------------------------------------------
  free energy    TOTEN  =        -2.98351391 eV

  energy without entropy =       -2.98351391  energy(sigma->0) =       -2.98351391


--------------------------------------------------------------------------------------------------------




--------------------------------------- Iteration      1(  17)  ---------------------------------------


    POTLOK:  cpu time    8.7397: real time    8.7425
    SETDIJ:  cpu time    0.0610: real time    0.0612
    EDDIAG:  cpu time    1.1018: real time    1.1030
  RMM-DIIS:  cpu time    3.7744: real time    3.7747
    ORTHCH:  cpu time    0.0460: real time    0.0463
       DOS:  cpu time    0.0000: real time    0.0006
    CHARGE:  cpu time    1.0518: real time    1.0530
    MIXING:  cpu time    0.2680: real time    0.2674
    --------------------------------------------
      LOOP:  cpu time   15.0427: real time   15.0486

 eigenvalue-minimisations  :    48
 total energy-change (2. order) :-0.5259459E+00  (-0.1006688E-02)
 number of electron       9.9999997 magnetization       0.0001019
 augmentation part        0.7221569 magnetization       0.0001063

 Broyden mixing:
  rms(total) = 0.13980E+01    rms(broyden)= 0.13980E+01
  rms(prec ) = 0.15615E+01
  weight for this iteration     100.00

 eigenvalues of (default mixing * dielectric matrix)
  average eigenvalue GAMMA=   1.1555
  2.8126  2.8126  2.5712  1.0087  1.0087  0.2981  0.2981  0.5835  0.5835  0.6361
  0.6265  0.6265

 Free energy of the ion-electron system (eV)
  ---------------------------------------------------
  alpha Z        PSCENC =         0.00563328
  Ewald energy   TEWEN  =       -10.68537377
  -Hartree energ DENC   =      -486.77559753
  -exchange      EXHF   =         0.00000000
  -V(xc)+E(xc)   XCENC  =        29.17270776
  PAW double counting   =       460.14250033     -453.94546527
  entropy T*S    EENTRO =        -0.00000000
  eigenvalues    EBANDS =      -120.92699178
  atomic energy  EATOM  =       579.50312721
  Solvation  Ediel_sol  =         0.00000000
  ---------------------------------------------------
  free energy    TOTEN  =        -3.50945978 eV

  energy without entropy =       -3.50945978  energy(sigma->0) =       -3.50945978


--------------------------------------------------------------------------------------------------------




--------------------------------------- Iteration      1(  18)  ---------------------------------------


    POTLOK:  cpu time    8.7387: real time    8.7461
    SETDIJ:  cpu time    0.0600: real time    0.0602
    EDDIAG:  cpu time    1.1018: real time    1.1023
  RMM-DIIS:  cpu time    3.7634: real time    3.7643
    ORTHCH:  cpu time    0.0460: real time    0.0460
       DOS:  cpu time    0.0010: real time    0.0005
    CHARGE:  cpu time    1.0518: real time    1.0529
    MIXING:  cpu time    0.2850: real time    0.2844
    --------------------------------------------
      LOOP:  cpu time   15.0467: real time   15.0570

 eigenvalue-minimisations  :    48
 total energy-change (2. order) : 0.3508649E+00  (-0.1061706E-02)
 number of electron       9.9999997 magnetization       0.0001022
 augmentation part        0.7183837 magnetization       0.0001088

 Broyden mixing:
  rms(total) = 0.13783E+01    rms(broyden)= 0.13783E+01
  rms(prec ) = 0.15421E+01
  weight for this iteration     100.00

 eigenvalues of (default mixing * dielectric matrix)
  average eigenvalue GAMMA=   1.1183
  2.5256  2.5256  2.6842  1.2682  1.2682  0.2981  0.2981  0.5740  0.5740  0.6404
  0.6404  0.6207  0.6207

 Free energy of the ion-electron system (eV)
  ---------------------------------------------------
  alpha Z        PSCENC =         0.00563328
  Ewald energy   TEWEN  =       -10.68537377
  -Hartree energ DENC   =      -487.56926324
  -exchange      EXHF   =         0.00000000
  -V(xc)+E(xc)   XCENC  =        29.22741332
  PAW double counting   =       461.21945692     -455.02156790
  entropy T*S    EENTRO =        -0.00000000
  eigenvalues    EBANDS =      -119.83802068
  atomic energy  EATOM  =       579.50312721
  Solvation  Ediel_sol  =         0.00000000
  ---------------------------------------------------
  free energy    TOTEN  =        -3.15859486 eV

  energy without entropy =       -3.15859486  energy(sigma->0) =       -3.15859486


--------------------------------------------------------------------------------------------------------




--------------------------------------- Iteration      1(  19)  ---------------------------------------


    POTLOK:  cpu time    8.7417: real time    8.7439
    SETDIJ:  cpu time    0.0610: real time    0.0621
    EDDIAG:  cpu time    1.1048: real time    1.1049
  RMM-DIIS:  cpu time    4.4423: real time    4.4434
    ORTHCH:  cpu time    0.0450: real time    0.0459
       DOS:  cpu time    0.0010: real time    0.0004
    CHARGE:  cpu time    1.0528: real time    1.0530
    MIXING:  cpu time    0.3020: real time    0.3014
    --------------------------------------------
      LOOP:  cpu time   15.7506: real time   15.7550

 eigenvalue-minimisations  :    54
 total energy-change (2. order) : 0.3743202E-01  (-0.1569305E-03)
 number of electron       9.9999997 magnetization       0.0000936
 augmentation part        0.7163889 magnetization       0.0001017

 Broyden mixing:
  rms(total) = 0.13734E+01    rms(broyden)= 0.13734E+01
  rms(prec ) = 0.15372E+01
  weight for this iteration     100.00

 eigenvalues of (default mixing * dielectric matrix)
  average eigenvalue GAMMA=   1.0483
  2.5644  2.5644  2.6759  1.2772  1.2772  0.2981  0.2981  0.5685  0.5685  0.6644
  0.6644  0.6101  0.6101  0.0350

 Free energy of the ion-electron system (eV)
  ---------------------------------------------------
  alpha Z        PSCENC =         0.00563328
  Ewald energy   TEWEN  =       -10.68537377
  -Hartree energ DENC   =      -487.60309719
  -exchange      EXHF   =         0.00000000
  -V(xc)+E(xc)   XCENC  =        29.22996528
  PAW double counting   =       461.21302786     -455.01498839
  entropy T*S    EENTRO =        -0.00000000
  eigenvalues    EBANDS =      -119.76945711
  atomic energy  EATOM  =       579.50312721
  Solvation  Ediel_sol  =         0.00000000
  ---------------------------------------------------
  free energy    TOTEN  =        -3.12116284 eV

  energy without entropy =       -3.12116284  energy(sigma->0) =       -3.12116284


--------------------------------------------------------------------------------------------------------




--------------------------------------- Iteration      1(  20)  ---------------------------------------


    POTLOK:  cpu time    8.7347: real time    8.7386
    SETDIJ:  cpu time    0.0610: real time    0.0606
    EDDIAG:  cpu time    1.1018: real time    1.1026
  RMM-DIIS:  cpu time    4.1764: real time    4.1773
    ORTHCH:  cpu time    0.0470: real time    0.0466
       DOS:  cpu time    0.0000: real time    0.0005
    CHARGE:  cpu time    1.0528: real time    1.0534
    MIXING:  cpu time    0.3210: real time    0.3203
    --------------------------------------------
      LOOP:  cpu time   15.4946: real time   15.5000

 eigenvalue-minimisations  :    50
 total energy-change (2. order) :-0.3303281E+00  (-0.7460552E-04)
 number of electron       9.9999997 magnetization       0.0000755
 augmentation part        0.7168230 magnetization       0.0000842

 Broyden mixing:
  rms(total) = 0.13755E+01    rms(broyden)= 0.13755E+01
  rms(prec ) = 0.15403E+01
  weight for this iteration     100.00

 eigenvalues of (default mixing * dielectric matrix)
  average eigenvalue GAMMA=   1.0211
  2.5923  2.5923  2.5785  1.0885  1.0885  0.8181  0.8181  0.2981  0.2981  0.5468
  0.5468  0.6120  0.6120  0.5081  0.3184

 Free energy of the ion-electron system (eV)
  ---------------------------------------------------
  alpha Z        PSCENC =         0.00563328
  Ewald energy   TEWEN  =       -10.68537377
  -Hartree energ DENC   =      -487.53150204
  -exchange      EXHF   =         0.00000000
  -V(xc)+E(xc)   XCENC  =        29.24151764
  PAW double counting   =       461.61860863     -455.42323814
  entropy T*S    EENTRO =        -0.00000000
  eigenvalues    EBANDS =      -120.18026377
  atomic energy  EATOM  =       579.50312721
  Solvation  Ediel_sol  =         0.00000000
  ---------------------------------------------------
  free energy    TOTEN  =        -3.45149096 eV

  energy without entropy =       -3.45149096  energy(sigma->0) =       -3.45149096


--------------------------------------------------------------------------------------------------------




--------------------------------------- Iteration      1(  21)  ---------------------------------------


    POTLOK:  cpu time    8.7357: real time    8.7409
    SETDIJ:  cpu time    0.0570: real time    0.0569
    EDDIAG:  cpu time    1.1018: real time    1.1039
  RMM-DIIS:  cpu time    4.1584: real time    4.1579
    ORTHCH:  cpu time    0.0460: real time    0.0466
       DOS:  cpu time    0.0010: real time    0.0005
    CHARGE:  cpu time    1.0528: real time    1.0531
    MIXING:  cpu time    0.3359: real time    0.3367
    --------------------------------------------
      LOOP:  cpu time   15.4896: real time   15.4965

 eigenvalue-minimisations  :    50
 total energy-change (2. order) :-0.6392711E+00  (-0.5631103E-03)
 number of electron       9.9999997 magnetization       0.0000866
 augmentation part        0.7192503 magnetization       0.0000923

 Broyden mixing:
  rms(total) = 0.13867E+01    rms(broyden)= 0.13867E+01
  rms(prec ) = 0.15531E+01
  weight for this iteration     100.00

 eigenvalues of (default mixing * dielectric matrix)
  average eigenvalue GAMMA=   0.9955
  2.6531  2.6531  2.5950  1.0501  1.0501  0.8739  0.8739  0.2981  0.2981  0.5481
  0.5481  0.6230  0.6230  0.4430  0.4430  0.3539

 Free energy of the ion-electron system (eV)
  ---------------------------------------------------
  alpha Z        PSCENC =         0.00563328
  Ewald energy   TEWEN  =       -10.68537377
  -Hartree energ DENC   =      -487.16777817
  -exchange      EXHF   =         0.00000000
  -V(xc)+E(xc)   XCENC  =        29.24586626
  PAW double counting   =       461.41591583     -455.22243985
  entropy T*S    EENTRO =        -0.00000000
  eigenvalues    EBANDS =      -121.18571287
  atomic energy  EATOM  =       579.50312721
  Solvation  Ediel_sol  =         0.00000000
  ---------------------------------------------------
  free energy    TOTEN  =        -4.09076208 eV

  energy without entropy =       -4.09076208  energy(sigma->0) =       -4.09076208


--------------------------------------------------------------------------------------------------------




--------------------------------------- Iteration      1(  22)  ---------------------------------------


    POTLOK:  cpu time    8.7327: real time    8.7384
    SETDIJ:  cpu time    0.0590: real time    0.0595
    EDDIAG:  cpu time    1.1038: real time    1.1034
  RMM-DIIS:  cpu time    4.1554: real time    4.1555
    ORTHCH:  cpu time    0.0450: real time    0.0463
       DOS:  cpu time    0.0010: real time    0.0004
    CHARGE:  cpu time    1.0568: real time    1.0558
    MIXING:  cpu time    0.3539: real time    0.3553
    --------------------------------------------
      LOOP:  cpu time   15.5076: real time   15.5146

 eigenvalue-minimisations  :    50
 total energy-change (2. order) : 0.2211607E+00  (-0.3245290E-04)
 number of electron       9.9999997 magnetization       0.0000691
 augmentation part        0.7194567 magnetization       0.0000761

 Broyden mixing:
  rms(total) = 0.13854E+01    rms(broyden)= 0.13854E+01
  rms(prec ) = 0.15511E+01
  weight for this iteration     100.00

 eigenvalues of (default mixing * dielectric matrix)
  average eigenvalue GAMMA=   1.0384
  2.6469  2.4207  2.4207  1.0809  1.1875  1.1875  0.7994  0.7994  0.8877  0.8877
  0.2981  0.2981  0.5428  0.5428  0.6489  0.6066  0.3978

 Free energy of the ion-electron system (eV)
  ---------------------------------------------------
  alpha Z        PSCENC =         0.00563328
  Ewald energy   TEWEN  =       -10.68537377
  -Hartree energ DENC   =      -487.23587139
  -exchange      EXHF   =         0.00000000
  -V(xc)+E(xc)   XCENC  =        29.23970804
  PAW double counting   =       461.42990545     -455.23612384
  entropy T*S    EENTRO =        -0.00000000
  eigenvalues    EBANDS =      -120.89060634
  atomic energy  EATOM  =       579.50312721
  Solvation  Ediel_sol  =         0.00000000
  ---------------------------------------------------
  free energy    TOTEN  =        -3.86960135 eV

  energy without entropy =       -3.86960135  energy(sigma->0) =       -3.86960135


--------------------------------------------------------------------------------------------------------




--------------------------------------- Iteration      1(  23)  ---------------------------------------


    POTLOK:  cpu time    8.7357: real time    8.7393
    SETDIJ:  cpu time    0.0610: real time    0.0610
    EDDIAG:  cpu time    1.1028: real time    1.1034
  RMM-DIIS:  cpu time    4.3843: real time    4.3846
    ORTHCH:  cpu time    0.0450: real time    0.0461
       DOS:  cpu time    0.0010: real time    0.0005
    CHARGE:  cpu time    1.0528: real time    1.0537
    MIXING:  cpu time    0.3739: real time    0.3746
    --------------------------------------------
      LOOP:  cpu time   15.7556: real time   15.7631

 eigenvalue-minimisations  :    54
 total energy-change (2. order) :-0.4408935E+00  (-0.2180511E-03)
 number of electron       9.9999997 magnetization       0.0000775
 augmentation part        0.7213690 magnetization       0.0000843

 Broyden mixing:
  rms(total) = 0.13931E+01    rms(broyden)= 0.13931E+01
  rms(prec ) = 0.15599E+01
  weight for this iteration     100.00

 eigenvalues of (default mixing * dielectric matrix)
  average eigenvalue GAMMA=   1.0584
  2.8695  2.8695  2.6355  0.9790  0.9790  1.1462  1.1462  0.6983  0.6983  0.2981
  0.2981  0.8488  0.8488  0.5398  0.5398  0.6591  0.5907  0.4062

 Free energy of the ion-electron system (eV)
  ---------------------------------------------------
  alpha Z        PSCENC =         0.00563328
  Ewald energy   TEWEN  =       -10.68537377
  -Hartree energ DENC   =      -487.03480188
  -exchange      EXHF   =         0.00000000
  -V(xc)+E(xc)   XCENC  =        29.24663562
  PAW double counting   =       461.39593995     -455.20274548
  entropy T*S    EENTRO =        -0.00000000
  eigenvalues    EBANDS =      -121.53890979
  atomic energy  EATOM  =       579.50312721
  Solvation  Ediel_sol  =         0.00000000
  ---------------------------------------------------
  free energy    TOTEN  =        -4.31049487 eV

  energy without entropy =       -4.31049487  energy(sigma->0) =       -4.31049487


--------------------------------------------------------------------------------------------------------




--------------------------------------- Iteration      1(  24)  ---------------------------------------


    POTLOK:  cpu time    8.7407: real time    8.7447
    SETDIJ:  cpu time    0.0600: real time    0.0604
    EDDIAG:  cpu time    1.1028: real time    1.1038
  RMM-DIIS:  cpu time    4.3983: real time    4.3982
    ORTHCH:  cpu time    0.0450: real time    0.0463
       DOS:  cpu time    0.0010: real time    0.0005
    CHARGE:  cpu time    1.0528: real time    1.0530
    MIXING:  cpu time    0.3929: real time    0.3929
    --------------------------------------------
      LOOP:  cpu time   15.7946: real time   15.7999

 eigenvalue-minimisations  :    54
 total energy-change (2. order) : 0.1866829E+00  (-0.2117566E-04)
 number of electron       9.9999997 magnetization       0.0000615
 augmentation part        0.7208200 magnetization       0.0000680

 Broyden mixing:
  rms(total) = 0.13909E+01    rms(broyden)= 0.13909E+01
  rms(prec ) = 0.15572E+01
  weight for this iteration     100.00

 eigenvalues of (default mixing * dielectric matrix)
  average eigenvalue GAMMA=   1.3802
  8.8424  2.5855  2.1340  1.2396  1.2396  1.3910  1.3910  0.8948  0.8948  0.2981
  0.2981  0.5370  0.5370  0.8133  0.8133  0.6688  0.6688  0.5561  0.4214

 Free energy of the ion-electron system (eV)
  ---------------------------------------------------
  alpha Z        PSCENC =         0.00563328
  Ewald energy   TEWEN  =       -10.68537377
  -Hartree energ DENC   =      -487.08837658
  -exchange      EXHF   =         0.00000000
  -V(xc)+E(xc)   XCENC  =        29.24127346
  PAW double counting   =       461.35925131     -455.16573514
  entropy T*S    EENTRO =        -0.00000000
  eigenvalues    EBANDS =      -121.29361170
  atomic energy  EATOM  =       579.50312721
  Solvation  Ediel_sol  =         0.00000000
  ---------------------------------------------------
  free energy    TOTEN  =        -4.12381193 eV

  energy without entropy =       -4.12381193  energy(sigma->0) =       -4.12381193


--------------------------------------------------------------------------------------------------------




--------------------------------------- Iteration      1(  25)  ---------------------------------------


    POTLOK:  cpu time    8.7387: real time    8.7423
    SETDIJ:  cpu time    0.0600: real time    0.0603
    EDDIAG:  cpu time    1.1038: real time    1.1037
  RMM-DIIS:  cpu time    3.7514: real time    3.7541
    ORTHCH:  cpu time    0.0460: real time    0.0465
       DOS:  cpu time    0.0010: real time    0.0007
    CHARGE:  cpu time    1.0538: real time    1.0542
    MIXING:  cpu time    0.4189: real time    0.4190
    --------------------------------------------
      LOOP:  cpu time   15.1727: real time   15.1807

 eigenvalue-minimisations  :    48
 total energy-change (2. order) :-0.4452013E+00  (-0.1748130E-03)
 number of electron       9.9999997 magnetization       0.0001064
 augmentation part        0.7222067 magnetization       0.0001133

 Broyden mixing:
  rms(total) = 0.13967E+01    rms(broyden)= 0.13967E+01
  rms(prec ) = 0.15642E+01
  weight for this iteration     100.00

 eigenvalues of (default mixing * dielectric matrix)
  average eigenvalue GAMMA=   1.2137
  5.9770  2.5915  2.3214  1.3075  1.3075  1.3656  1.3656  0.6563  0.9775  0.9775
  0.2981  0.2981  0.5384  0.5384  0.7632  0.7632  0.6352  0.6352  0.5293  0.4281

 Free energy of the ion-electron system (eV)
  ---------------------------------------------------
  alpha Z        PSCENC =         0.00563328
  Ewald energy   TEWEN  =       -10.68537377
  -Hartree energ DENC   =      -486.94045977
  -exchange      EXHF   =         0.00000000
  -V(xc)+E(xc)   XCENC  =        29.25247485
  PAW double counting   =       461.32751790     -455.13523098
  entropy T*S    EENTRO =        -0.00000000
  eigenvalues    EBANDS =      -121.89670198
  atomic energy  EATOM  =       579.50312721
  Solvation  Ediel_sol  =         0.00000000
  ---------------------------------------------------
  free energy    TOTEN  =        -4.56901325 eV

  energy without entropy =       -4.56901325  energy(sigma->0) =       -4.56901325


--------------------------------------------------------------------------------------------------------




--------------------------------------- Iteration      1(  26)  ---------------------------------------


    POTLOK:  cpu time    8.7417: real time    8.7450
    SETDIJ:  cpu time    0.0580: real time    0.0597
    EDDIAG:  cpu time    1.1038: real time    1.1027
  RMM-DIIS:  cpu time    4.1594: real time    4.1600
    ORTHCH:  cpu time    0.0460: real time    0.0464
       DOS:  cpu time    0.0010: real time    0.0005
    CHARGE:  cpu time    1.0548: real time    1.0549
    MIXING:  cpu time    0.4369: real time    0.4378
    --------------------------------------------
      LOOP:  cpu time   15.6026: real time   15.6069

 eigenvalue-minimisations  :    52
 total energy-change (2. order) : 0.1918767E+01  (-0.2977705E-02)
 number of electron       9.9999997 magnetization       0.0001485
 augmentation part        0.7167346 magnetization      -0.0002499

 Broyden mixing:
  rms(total) = 0.13746E+01    rms(broyden)= 0.13746E+01
  rms(prec ) = 0.15368E+01
  weight for this iteration     100.00

 eigenvalues of (default mixing * dielectric matrix)
  average eigenvalue GAMMA=   1.1591
  5.5056  2.5775  2.3091  1.3318  1.3318  1.0369  1.3511  1.3511  0.9803  0.9803
  0.2981  0.2981  0.5382  0.5382  0.7685  0.7685  0.6394  0.6394  0.5335  0.4265
  0.1371

 Free energy of the ion-electron system (eV)
  ---------------------------------------------------
  alpha Z        PSCENC =         0.00563328
  Ewald energy   TEWEN  =       -10.68537377
  -Hartree energ DENC   =      -487.51464745
  -exchange      EXHF   =         0.00000000
  -V(xc)+E(xc)   XCENC  =        29.19835327
  PAW double counting   =       461.05648437     -454.85506026
  entropy T*S    EENTRO =        -0.00000000
  eigenvalues    EBANDS =      -119.35876255
  atomic energy  EATOM  =       579.50312721
  Solvation  Ediel_sol  =         0.00000000
  ---------------------------------------------------
  free energy    TOTEN  =        -2.65024590 eV

  energy without entropy =       -2.65024590  energy(sigma->0) =       -2.65024590


--------------------------------------------------------------------------------------------------------




--------------------------------------- Iteration      1(  27)  ---------------------------------------


    POTLOK:  cpu time    8.7377: real time    8.7415
    SETDIJ:  cpu time    0.0600: real time    0.0608
    EDDIAG:  cpu time    1.1028: real time    1.1028
  RMM-DIIS:  cpu time    4.3473: real time    4.3475
    ORTHCH:  cpu time    0.0470: real time    0.0465
       DOS:  cpu time    0.0000: real time    0.0006
    CHARGE:  cpu time    1.2728: real time    1.2735
    MIXING:  cpu time    0.4649: real time    0.4646
    --------------------------------------------
      LOOP:  cpu time   16.0316: real time   16.0377

 eigenvalue-minimisations  :    54
 total energy-change (2. order) : 0.2052931E+01  (-0.3011369E-01)
 number of electron      10.0000001 magnetization       0.0005397
 augmentation part        0.1837452 magnetization      -0.0457744

 Broyden mixing:
  rms(total) = 0.16163E+01    rms(broyden)= 0.16154E+01
  rms(prec ) = 0.18094E+01
  weight for this iteration     100.00

 eigenvalues of (default mixing * dielectric matrix)
  average eigenvalue GAMMA=   1.1175
  5.8639  2.5567  2.2740  1.3243  1.3243  1.3546  1.3546  0.9380  0.9782  0.9782
  0.2981  0.2981  0.5382  0.5382  0.7715  0.7715  0.6416  0.6416  0.5334  0.4264
  0.0249  0.1537

 Free energy of the ion-electron system (eV)
  ---------------------------------------------------
  alpha Z        PSCENC =         0.00563328
  Ewald energy   TEWEN  =       -10.68537377
  -Hartree energ DENC   =      -488.49585480
  -exchange      EXHF   =         0.00000000
  -V(xc)+E(xc)   XCENC  =        29.14841451
  PAW double counting   =       460.77704364     -454.56574122
  entropy T*S    EENTRO =        -0.15167524
  eigenvalues    EBANDS =      -116.13288887
  atomic energy  EATOM  =       579.50312721
  Solvation  Ediel_sol  =         0.00000000
  ---------------------------------------------------
  free energy    TOTEN  =        -0.59731526 eV

  energy without entropy =       -0.44564002  energy(sigma->0) =       -0.52147764


--------------------------------------------------------------------------------------------------------




--------------------------------------- Iteration      1(  28)  ---------------------------------------


    POTLOK:  cpu time    8.7407: real time    8.7447
    SETDIJ:  cpu time    0.0620: real time    0.0626
    EDDIAG:  cpu time    1.1028: real time    1.1020
  RMM-DIIS:  cpu time    4.1744: real time    4.1760
    ORTHCH:  cpu time    0.0470: real time    0.0461
       DOS:  cpu time    0.0000: real time    0.0006
    CHARGE:  cpu time    1.0538: real time    1.0533
    MIXING:  cpu time    0.4849: real time    0.4854
    --------------------------------------------
      LOOP:  cpu time   15.6656: real time   15.6707

 eigenvalue-minimisations  :    52
 total energy-change (2. order) :-0.8484103E+00  (-0.1837871E-02)
 number of electron       9.9999997 magnetization       0.0009372
 augmentation part        0.7093948 magnetization       0.0012726

 Broyden mixing:
  rms(total) = 0.13476E+01    rms(broyden)= 0.13469E+01
  rms(prec ) = 0.15061E+01
  weight for this iteration     100.00

 eigenvalues of (default mixing * dielectric matrix)
  average eigenvalue GAMMA=   1.1876
  4.4895  4.4895  2.5012  2.2487  1.3493  1.3493  1.2719  1.2719  0.9931  0.9931
  0.7933  0.7933  0.5376  0.5376  0.2981  0.2981  0.6537  0.6537  0.5444  0.4251
  0.3568  0.3568  0.1080

 Free energy of the ion-electron system (eV)
  ---------------------------------------------------
  alpha Z        PSCENC =         0.00563328
  Ewald energy   TEWEN  =       -10.68537377
  -Hartree energ DENC   =      -488.49870043
  -exchange      EXHF   =         0.00000000
  -V(xc)+E(xc)   XCENC  =        29.21101908
  PAW double counting   =       461.65657634     -455.43856694
  entropy T*S    EENTRO =        -0.00000000
  eigenvalues    EBANDS =      -117.19944031
  atomic energy  EATOM  =       579.50312721
  Solvation  Ediel_sol  =         0.00000000
  ---------------------------------------------------
  free energy    TOTEN  =        -1.44572555 eV

  energy without entropy =       -1.44572555  energy(sigma->0) =       -1.44572555


--------------------------------------------------------------------------------------------------------




[...]
 -0.376   0.318  -0.001   0.914   0.146  -0.060  -1.006  -0.150   0.062   0.026   0.005  -0.002  -0.004   0.009  -0.013  -0.001
 -0.112   0.094  -0.000   0.146   0.452  -0.050  -0.150  -0.533   0.047   0.005   0.011  -0.001  -0.001   0.017   0.005  -0.002
  0.048  -0.041   0.000  -0.060  -0.050   0.383   0.062   0.047  -0.467  -0.002  -0.001   0.010   0.016  -0.001   0.002   0.005
  0.034  -0.017  -0.000  -0.083  -0.011   0.602   0.101   0.010  -0.743  -0.004  -0.001   0.016   0.027  -0.001   0.004   0.008
 -0.060   0.022   0.000   0.197   0.616  -0.012  -0.237  -0.756   0.010   0.009   0.017  -0.001  -0.001   0.030   0.004  -0.004
  0.063  -0.032  -0.000  -0.364   0.206   0.042   0.445  -0.254  -0.053  -0.013   0.005   0.002   0.004   0.004   0.013  -0.000
 -0.067   0.074  -0.001  -0.019  -0.087   0.182   0.017   0.104  -0.223  -0.001  -0.002   0.005   0.008  -0.004  -0.000   0.003
  0.042   0.023  -0.001  -0.653  -0.009  -0.074   0.790   0.009   0.092  -0.023  -0.002  -0.001   0.001  -0.009   0.016  -0.001
  0.048  -0.060   0.001   0.094   0.019  -0.247  -0.105  -0.020   0.304   0.003   0.001  -0.007  -0.011   0.001  -0.002  -0.003
 -0.113   0.141  -0.002  -0.218  -0.283   0.019   0.242   0.342  -0.020  -0.007  -0.008   0.001   0.001  -0.014  -0.000   0.002
  0.091  -0.114   0.002   0.259  -0.046  -0.033  -0.297   0.064   0.038   0.008  -0.001  -0.001  -0.002  -0.000  -0.006  -0.000
  0.022  -0.026   0.000   0.021   0.037  -0.074  -0.022  -0.045   0.091   0.001   0.001  -0.002  -0.003   0.002  -0.000  -0.001
  0.193  -0.239   0.004   0.486   0.073  -0.001  -0.554  -0.076  -0.005   0.015   0.003  -0.000  -0.002   0.007  -0.009  -0.000
 total augmentation occupancy for first ion, spin component:           2
 -0.000   0.000  -0.000   0.884  -2.362   1.443  -0.788   2.106  -1.287   0.007  -0.020   0.012   0.046  -0.072  -0.042   0.025
  0.000  -0.000   0.000  -0.853   2.280  -1.394   0.760  -2.033   1.242  -0.007   0.019  -0.012  -0.047   0.074   0.043  -0.026
 -0.000   0.000  -0.000  -0.012   0.032  -0.019   0.011  -0.029   0.017  -0.000   0.000  -0.000   0.000  -0.001  -0.000   0.000
  0.884  -0.853  -0.012  -6.865   8.151  -5.161   6.180  -7.321   4.636  -0.080   0.060  -0.039  -0.016   0.030  -0.004  -0.005
 -2.362   2.280   0.032   8.151   5.429  -2.836  -7.354  -4.888   2.552   0.131   0.064  -0.032   0.016  -0.037   0.037  -0.002
  1.443  -1.394  -0.019  -5.161  -2.836   1.439   4.656   2.554  -1.295  -0.082  -0.035   0.017  -0.010   0.023  -0.023   0.000
 -0.788   0.760   0.011   6.180  -7.354   4.656  -5.563   6.605  -4.182   0.072  -0.054   0.036   0.015  -0.027   0.004   0.005
  2.106  -2.033  -0.029  -7.321  -4.888   2.554   6.605   4.400  -2.298  -0.118  -0.057   0.028  -0.014   0.033  -0.033   0.001
 -1.287   1.242   0.017   4.636   2.552  -1.295  -4.182  -2.298   1.166   0.073   0.031  -0.015   0.009  -0.021   0.021  -0.000
  0.007  -0.007  -0.000  -0.080   0.131  -0.082   0.072  -0.118   0.073  -0.001   0.001  -0.001  -0.000   0.000   0.000  -0.000
 -0.020   0.019   0.000   0.060   0.064  -0.035  -0.054  -0.057   0.031   0.001   0.001  -0.000   0.000  -0.000   0.000  -0.000
  0.012  -0.012  -0.000  -0.039  -0.032   0.017   0.036   0.028  -0.015  -0.001  -0.000   0.000  -0.000   0.000  -0.000  -0.000
  0.046  -0.047   0.000  -0.016   0.016  -0.010   0.015  -0.014   0.009  -0.000   0.000  -0.000  -0.000   0.000  -0.000  -0.000
 -0.072   0.074  -0.001   0.030  -0.037   0.023  -0.027   0.033  -0.021   0.000  -0.000   0.000   0.000  -0.000   0.000   0.000
 -0.042   0.043  -0.000  -0.004   0.037  -0.023   0.004  -0.033   0.021   0.000   0.000  -0.000  -0.000   0.000   0.000  -0.000
  0.025  -0.026   0.000  -0.005  -0.002   0.000   0.005   0.001  -0.000  -0.000  -0.000  -0.000  -0.000   0.000  -0.000  -0.000
 -0.037   0.038  -0.000  -0.016   0.067  -0.040   0.015  -0.060   0.036  -0.000   0.001  -0.000  -0.000   0.000   0.000  -0.000
 -0.003   0.003  -0.000  -0.001   0.002  -0.001   0.001  -0.002   0.001  -0.000   0.000  -0.000   0.000  -0.000  -0.000   0.000
  0.004  -0.004   0.000   0.003  -0.006   0.004  -0.003   0.005  -0.003   0.000  -0.000   0.000  -0.000   0.000   0.000  -0.000
  0.002  -0.003   0.000  -0.001   0.005  -0.003   0.001  -0.004   0.003  -0.000   0.000  -0.000   0.000  -0.000  -0.000   0.000
 -0.002   0.002  -0.000  -0.001   0.001  -0.001   0.001  -0.001   0.001  -0.000   0.000  -0.000   0.000  -0.000  -0.000   0.000
  0.002  -0.002   0.000  -0.004   0.011  -0.006   0.003  -0.010   0.006  -0.000   0.000  -0.000   0.000  -0.000  -0.000   0.000


------------------------ aborting loop because EDIFF is reached ----------------------------------------


    CHARGE:  cpu time    1.0508: real time    1.0507
    FORLOC:  cpu time    0.1690: real time    0.1690
    FORNL :  cpu time    1.8657: real time    1.8662
    STRESS:  cpu time    5.8991: real time    5.9135
    FORCOR:  cpu time    8.4657: real time    8.4668
    FORHAR:  cpu time    1.0368: real time    1.0373
    MIXING:  cpu time    0.8159: real time    0.8156
    OFIELD:  cpu time    0.0000: real time    0.0008

 ---------------------------------------------------------------------------------------------

         DFTD3 V3.0 Rev 1        
 Edisp (eV)   -0.00000

 E6    (eV) :    -0.0000
 E8    (eV) :    -0.0000
 % E8        :  0.52
    FORVDW:  cpu time    0.0110: real time    0.0116

  FORCE on cell =-STRESS in cart. coord.  units (eV):
  Direction    XX          YY          ZZ          XY          YZ          ZX
  --------------------------------------------------------------------------------------
  Alpha Z     0.00563     0.00563     0.00563
  Ewald       5.66808  1692.92158   128.03359  -220.60378   508.52498   -65.38909
  Hartree   292.70081   313.20168   301.73017    -0.34898     2.58948    -8.01539
  E(xc)     -57.65611   -57.52182   -57.59864    -0.00280     0.01779    -0.05115
  Local    -620.53740  -682.71744  -635.04191     5.03968   -13.98651    11.99428
  n-local    86.62761    55.43736    84.75899     4.20036    -9.58832     0.82856
  augment   138.75738   120.03946   137.70929     2.54202    -5.78773     0.42982
  Kinetic   180.62824   186.97484   182.78458    -0.30577     1.10841    -1.88024
  Fock        0.00000     0.00000     0.00000     0.00000     0.00000     0.00000
  vdW        -0.00000    -0.00000    -0.00000    -0.00000     0.00000    -0.00000
  -------------------------------------------------------------------------------------
  Total      26.19424  1628.34128   142.38171  -209.47926   482.87810   -62.08322
  in kB       1.55436    96.62561     8.44892   -12.43048    28.65394    -3.68401
  external pressure =       35.54 kB  Pullay stress =        0.00 kB


 VOLUME and BASIS-vectors are now :
 -----------------------------------------------------------------------------
  energy-cutoff  :      520.00
  volume of cell :    27000.00
      direct lattice vectors                 reciprocal lattice vectors
    30.000000000  0.000000000  0.000000000     0.033333333  0.000000000  0.000000000
     0.000000000 30.000000000  0.000000000     0.000000000  0.033333333  0.000000000
     0.000000000  0.000000000 30.000000000     0.000000000  0.000000000  0.033333333

  length of vectors
    30.000000000 30.000000000 30.000000000     0.033333333  0.033333333  0.033333333


 FORCES acting on ions
    electron-ion (+dipol)            ewald-force                    non-local-force                 convergence-correction
 -----------------------------------------------------------------------------------------------
   0.347E+02 -.270E+03 -.799E+02   -.127E+04 0.988E+04 0.293E+04   0.295E+02 -.230E+03 -.681E+02   -.828E-03 0.177E-02 0.128E-02
   -.484E+02 0.376E+03 0.112E+03   0.127E+04 -.988E+04 -.293E+04   -.158E+02 0.123E+03 0.364E+02   -.414E-03 0.108E-02 0.651E-03
 -----------------------------------------------------------------------------------------------
   -.137E+02 0.107E+03 0.317E+02   0.000E+00 0.000E+00 0.000E+00   0.137E+02 -.107E+03 -.317E+02   -.124E-02 0.285E-02 0.193E-02
 
 
 POSITION                                       TOTAL-FORCE (eV/Angst)
 -----------------------------------------------------------------------------------
     16.31843     16.50086     17.17909     -1206.836557   9385.463647   2781.944817
     16.34074     16.32730     17.12765      1206.836557  -9385.463647  -2781.944817
 -----------------------------------------------------------------------------------
    total drift:                                0.002826     -0.006213     -0.008236


--------------------------------------------------------------------------------------------------------



  FREE ENERGIE OF THE ION-ELECTRON SYSTEM (eV)
  ---------------------------------------------------
  free  energy   TOTEN  =      1125.82332390 eV

  energy  without entropy=     1125.82332390  energy(sigma->0) =     1125.82332390
 
 d Force = 0.8124558E+04[ 0.162E+05, 0.597E+01]  d Energy =-0.1127598E+04 0.925E+04
 d Force = 0.8494819E+04[ 0.171E+05,-0.117E+03]  d Ewald  =-0.1779996E+04 0.103E+05


--------------------------------------------------------------------------------------------------------


    POTLOK:  cpu time    8.7467: real time    8.7559


--------------------------------------------------------------------------------------------------------


 stress matrix after NEB project (eV)
     26.19424   -209.47926    -62.08322
   -209.47926   1628.34128    482.87810
    -62.08322    482.87810    142.38171
  FORCES: max atom, RMS  9863.194174 9863.194174
  FORCE total and by dimension13948.662969 9385.463647
  Stress total and by dimension 1798.407159 1628.341281


--------------------------------------------------------------------------------------------------------


    WAVPRE:  cpu time    0.9669: real time    0.9703
    FEWALD:  cpu time    0.0010: real time    0.0003

 real space projection operators:
  total allocation   :       1744.97 KBytes
  max/ min on nodes  :        438.59        432.65

    ORTHCH:  cpu time    0.5529: real time    0.5528
     LOOP+:  cpu time  559.5769: real time  560.2537


--------------------------------------- Iteration     13(   1)  ---------------------------------------


    POTLOK:  cpu time    8.7117: real time    8.7151
    SETDIJ:  cpu time    0.0590: real time    0.0602
     EDDAV:  cpu time    4.5533: real time    4.5748
       DOS:  cpu time    0.0010: real time    0.0005
    CHARGE:  cpu time    1.0538: real time    1.0540
    MIXING:  cpu time    0.1380: real time    0.1384
    --------------------------------------------
      LOOP:  cpu time   14.5178: real time   14.5434

 eigenvalue-minimisations  :    48
 total energy-change (2. order) :-0.1091670E+04  (-0.5593082E+03)
 number of electron      10.0000001 magnetization       0.0001398
 augmentation part       -0.1198446 magnetization       0.0001563

 Broyden mixing:
  rms(total) = 0.11904E+02    rms(broyden)= 0.11903E+02
  rms(prec ) = 0.11986E+02
  weight for this iteration     100.00

 Free energy of the ion-electron system (eV)
  ---------------------------------------------------
  alpha Z        PSCENC =         0.00563328
  Ewald energy   TEWEN  =       -12.37877368
  -Hartree energ DENC   =      -511.70970670
  -exchange      EXHF   =         0.00000000
  -V(xc)+E(xc)   XCENC  =        40.96608231
  PAW double counting   =     15585.82774733   -15583.82144120
  entropy T*S    EENTRO =        -0.00018560
  eigenvalues    EBANDS =       -64.23915397
  atomic energy  EATOM  =       579.50312721
  Solvation  Ediel_sol  =         0.00000000
  ---------------------------------------------------
  free energy    TOTEN  =        34.15332898 eV

  energy without entropy =       34.15351458  energy(sigma->0) =       34.15342178


--------------------------------------------------------------------------------------------------------




--------------------------------------- Iteration     13(   2)  ---------------------------------------


    POTLOK:  cpu time    8.6827: real time    8.7086
    SETDIJ:  cpu time    0.0590: real time    0.0602
    EDDIAG:  cpu time    1.0948: real time    1.0952
  RMM-DIIS:  cpu time    5.7061: real time    5.7065
    ORTHCH:  cpu time    0.0450: real time    0.0473
       DOS:  cpu time    0.0010: real time    0.0006
    CHARGE:  cpu time    1.0488: real time    1.0489
    MIXING:  cpu time    0.1460: real time    0.1472
    --------------------------------------------
      LOOP:  cpu time   16.7834: real time   16.8146

 eigenvalue-minimisations  :    68
 total energy-change (2. order) : 0.2993940E+02  (-0.6311355E+02)
 number of electron      10.0000001 magnetization       0.0001354
 augmentation part       -0.0963074 magnetization      -0.0055700

 Broyden mixing:
  rms(total) = 0.12028E+02    rms(broyden)= 0.12028E+02
  rms(prec ) = 0.12043E+02
  weight for this iteration     100.00

 eigenvalues of (default mixing * dielectric matrix)
  average eigenvalue GAMMA=   0.4583
  0.4583

 Free energy of the ion-electron system (eV)
  ---------------------------------------------------
  alpha Z        PSCENC =         0.00563328
  Ewald energy   TEWEN  =       -12.37877368
  -Hartree energ DENC   =      -371.49273808
  -exchange      EXHF   =         0.00000000
  -V(xc)+E(xc)   XCENC  =        30.39145047
  PAW double counting   =      7577.56385777    -7573.80192122
  entropy T*S    EENTRO =        -0.00000000
  eigenvalues    EBANDS =      -165.69791095
  atomic energy  EATOM  =       579.50312721
  Solvation  Ediel_sol  =         0.00000000
  ---------------------------------------------------
  free energy    TOTEN  =        64.09272479 eV

  energy without entropy =       64.09272479  energy(sigma->0) =       64.09272479


--------------------------------------------------------------------------------------------------------




--------------------------------------- Iteration     13(   3)  ---------------------------------------


    POTLOK:  cpu time    8.6847: real time    8.6880
    SETDIJ:  cpu time    0.0600: real time    0.0606
    EDDIAG:  cpu time    1.0988: real time    1.0997
  RMM-DIIS:  cpu time    5.0842: real time    5.0835
    ORTHCH:  cpu time    0.0450: real time    0.0464
       DOS:  cpu time    0.0010: real time    0.0005
    CHARGE:  cpu time    1.3138: real time    1.3148
    MIXING:  cpu time    0.1590: real time    0.1590
    --------------------------------------------
      LOOP:  cpu time   16.4465: real time   16.4525

 eigenvalue-minimisations  :    62
 total energy-change (2. order) :-0.4351920E+02  (-0.5191781E+02)
 number of electron       9.9999999 magnetization      -0.3392020
 augmentation part        0.2180794 magnetization       1.5613581

 Broyden mixing:
  rms(total) = 0.95059E+01    rms(broyden)= 0.95053E+01
  rms(prec ) = 0.95145E+01
  weight for this iteration     100.00

 eigenvalues of (default mixing * dielectric matrix)
  average eigenvalue GAMMA=   0.9799
  0.9799  0.9799

 Free energy of the ion-electron system (eV)
  ---------------------------------------------------
  alpha Z        PSCENC =         0.00563328
  Ewald energy   TEWEN  =       -12.37877368
  -Hartree energ DENC   =      -352.46334304
  -exchange      EXHF   =         0.00000000
  -V(xc)+E(xc)   XCENC  =        26.07930345
  PAW double counting   =      5572.42538398    -5568.22105378
  entropy T*S    EENTRO =        -0.00000000
  eigenvalues    EBANDS =      -224.37675645
  atomic energy  EATOM  =       579.50312721
  Solvation  Ediel_sol  =         0.00000000
  ---------------------------------------------------
  free energy    TOTEN  =        20.57352097 eV

  energy without entropy =       20.57352097  energy(sigma->0) =       20.57352097


--------------------------------------------------------------------------------------------------------




--------------------------------------- Iteration     13(   4)  ---------------------------------------


    POTLOK:  cpu time    8.7007: real time    8.7246
    SETDIJ:  cpu time    0.0580: real time    0.0593
    EDDIAG:  cpu time    1.7247: real time    1.7243
  RMM-DIIS:  cpu time    5.6331: real time    5.6338
    ORTHCH:  cpu time    0.0470: real time    0.0466
       DOS:  cpu time    0.0000: real time    0.0006
    CHARGE:  cpu time    1.0418: real time    1.0528
    MIXING:  cpu time    0.1660: real time    0.1663
    --------------------------------------------
      LOOP:  cpu time   17.3704: real time   17.4084

 eigenvalue-minimisations  :    58
 total energy-change (2. order) : 0.3677346E+02  (-0.1695026E+02)
 number of electron       9.9999999 magnetization      -0.7264675
 augmentation part        0.2615919 magnetization       1.0930506

 Broyden mixing:
  rms(total) = 0.75882E+01    rms(broyden)= 0.75881E+01
  rms(prec ) = 0.75917E+01
  weight for this iteration     100.00

 eigenvalues of (default mixing * dielectric matrix)
  average eigenvalue GAMMA=   1.1338
  1.4614  1.4614  0.4786

 Free energy of the ion-electron system (eV)
  ---------------------------------------------------
  alpha Z        PSCENC =         0.00563328
  Ewald energy   TEWEN  =       -12.37877368
  -Hartree energ DENC   =      -433.30119788
  -exchange      EXHF   =         0.00000000
  -V(xc)+E(xc)   XCENC  =        61.23982351
  PAW double counting   =      3649.31516079    -3644.19284560
  entropy T*S    EENTRO =        -0.00000000
  eigenvalues    EBANDS =      -142.84394827
  atomic energy  EATOM  =       579.50312721
  Solvation  Ediel_sol  =         0.00000000
  ---------------------------------------------------
  free energy    TOTEN  =        57.34697937 eV

  energy without entropy =       57.34697937  energy(sigma->0) =       57.34697937


--------------------------------------------------------------------------------------------------------




--------------------------------------- Iteration     13(   5)  ---------------------------------------


    POTLOK:  cpu time    8.7247: real time    8.7302
    SETDIJ:  cpu time    0.0590: real time    0.0593
    EDDIAG:  cpu time    1.1298: real time    1.1304
  RMM-DIIS:  cpu time    4.3813: real time    4.3823
    ORTHCH:  cpu time    0.0440: real time    0.0463
       DOS:  cpu time    0.0010: real time    0.0005
    CHARGE:  cpu time    1.2998: real time    1.3032
    MIXING:  cpu time    0.1730: real time    0.1734
    --------------------------------------------
      LOOP:  cpu time   15.8136: real time   15.8255

 eigenvalue-minimisations  :    53
 total energy-change (2. order) :-0.1910607E+02  (-0.6244462E+01)
 number of electron       9.9999998 magnetization      -0.9713155
 augmentation part        0.2307342 magnetization      -1.0934722

 Broyden mixing:
  rms(total) = 0.63264E+01    rms(broyden)= 0.63261E+01
  rms(prec ) = 0.63675E+01
  weight for this iteration     100.00

 eigenvalues of (default mixing * dielectric matrix)
  average eigenvalue GAMMA=   1.2728
  2.6960  1.1497  0.6228  0.6228

 Free energy of the ion-electron system (eV)
  ---------------------------------------------------
  alpha Z        PSCENC =         0.00563328
  Ewald energy   TEWEN  =       -12.37877368
  -Hartree energ DENC   =      -520.32919562
  -exchange      EXHF   =         0.00000000
  -V(xc)+E(xc)   XCENC  =        67.26894391
  PAW double counting   =      2292.52332156    -2286.42526296
  entropy T*S    EENTRO =        -0.00000001
  eigenvalues    EBANDS =       -81.92688825
  atomic energy  EATOM  =       579.50312721
  Solvation  Ediel_sol  =         0.00000000
  ---------------------------------------------------
  free energy    TOTEN  =        38.24090544 eV

  energy without entropy =       38.24090545  energy(sigma->0) =       38.24090545


--------------------------------------------------------------------------------------------------------




--------------------------------------- Iteration     13(   6)  ---------------------------------------


    POTLOK:  cpu time    8.7257: real time    8.7296
    SETDIJ:  cpu time    0.0610: real time    0.0608
