 vasp.5.4.4.18Apr17-6-g9f103f2a35 (build May 21 2019 18:55:53) complex          
  
 executed on           IFC19_impi date 2025.08.26  20:53:38
 running on   24 total cores
 distrk:  each k-point on   24 cores,    1 groups
 distr:  one band on NCORES_PER_BAND=   4 cores,    6 groups


--------------------------------------------------------------------------------------------------------


 INCAR:
 POTCAR:    PAW_PBE O_GW_new 19Mar2012            
 POTCAR:    PAW_PBE C_GW_new 19Mar2012            
 POTCAR:    PAW_PBE O_GW_new 19Mar2012            
   SHA256 =  c493eb4e480bc193c6922e0b8c73e7a108f48fca6e73afddd92a880a1c2b3374 O_
   COPYR  = (c) Copyright 19Mar2012 Georg Kresse                                
   COPYR  = This file is part of the software VASP. Any use, copying, and all ot
   COPYR  = If you do not have a valid VASP license, you may not use, copy or di
   VRHFIN =O: s2p4                                                              
   LEXCH  = PE                                                                  
   EATOM  =   432.3788 eV,   31.7789 Ry                                         
                                                                                
   TITEL  = PAW_PBE O_GW_new 19Mar2012                                          
   LULTRA =        F    use ultrasoft PP ?                                      
   IUNSCR =        1    unscreen: 0-lin 1-nonlin 2-no                           
   RPACOR =    0.800    partial core radius                                     
   POMASS =   16.000; ZVAL   =    6.000    mass and valenz                      
   RCORE  =    1.600    outmost cutoff radius                                   
   RWIGS  =    1.600; RWIGS  =    0.847    wigner-seitz radius (au A)           
   ENMAX  =  434.431; ENMIN  =  325.824 eV                                      
   ICORE  =        3    local potential                                         
   LCOR   =        T    correct aug charges                                     
   LPAW   =        T    paw PP                                                  
   EAUG   = 1139.609                                                            
   DEXC   =    0.000                                                            
   RMAX   =    1.629    core radius for proj-oper                               
   RAUG   =    1.300    factor for augmentation sphere                          
   RDEP   =    1.652    radius for radial grids                                 
   RDEPT  =    1.200    core radius for aug-charge                              
                                                                                
   Atomic configuration                                                         
    5 entries                                                                   
     n  l   j            E        occ.                                          
     1  0  0.50      -514.6923   2.0000                                         
     2  0  0.50       -23.9615   2.0000                                         
     2  1  0.50        -9.0305   4.0000                                         
     3  2  1.50        -9.5241   0.0000                                         
     4  3  2.50        -9.5241   0.0000                                         
   Description                                                                  
     l       E           TYP  RCUT    TYP  RCUT                                 
     0    -23.9615316     23  1.150                                             
     0    -25.3221142     23  1.150                                             
     0    244.9048680     23  1.300                                             
     1     -9.0304908     23  1.500                                             
     1     -6.9258396     23  1.500                                             
     1    122.4524340     23  1.500                                             
     2     13.6058260     23  1.500                                             
     2    190.4815640     23  1.600                                             
     3     54.4233040     23  1.400                                             
  local pseudopotential read in
  partial core-charges read in
  partial kinetic energy density read in
  kinetic energy density of atom read in
  atomic valenz-charges read in
  non local Contribution for L=           0  read in
    real space projection operators read in
  non local Contribution for L=           0  read in
    real space projection operators read in
  non local Contribution for L=           0  read in
    real space projection operators read in
  non local Contribution for L=           1  read in
    real space projection operators read in
  non local Contribution for L=           1  read in
    real space projection operators read in
  non local Contribution for L=           1  read in
    real space projection operators read in
  non local Contribution for L=           2  read in
    real space projection operators read in
  non local Contribution for L=           2  read in
    real space projection operators read in
    PAW grid and wavefunctions read in
 
   number of l-projection  operators is LMAX  =           8
   number of lm-projection operators is LMMAX =          22
 
 POTCAR:    PAW_PBE C_GW_new 19Mar2012            
   SHA256 =  fd3f4f69ac51e962ca076bfc50bb68de54373009f6c2495f58fe5f585428a9ad C_
   COPYR  = (c) Copyright 19Mar2012 Georg Kresse                                
   COPYR  = This file is part of the software VASP. Any use, copying, and all ot
   COPYR  = If you do not have a valid VASP license, you may not use, copy or di
   VRHFIN =C: s2p2                                                              
   LEXCH  = PE                                                                  
   EATOM  =   147.1560 eV,   10.8157 Ry                                         
                                                                                
   TITEL  = PAW_PBE C_GW_new 19Mar2012                                          
   LULTRA =        F    use ultrasoft PP ?                                      
   IUNSCR =        1    unscreen: 0-lin 1-nonlin 2-no                           
   RPACOR =    0.800    partial core radius                                     
   POMASS =   12.011; ZVAL   =    4.000    mass and valenz                      
   RCORE  =    1.600    outmost cutoff radius                                   
   RWIGS  =    1.600; RWIGS  =    0.847    wigner-seitz radius (au A)           
   ENMAX  =  413.992; ENMIN  =  310.494 eV                                      
   ICORE  =        3    local potential                                         
   LCOR   =        T    correct aug charges                                     
   LPAW   =        T    paw PP                                                  
   EAUG   = 1213.930                                                            
   DEXC   =    0.000                                                            
   RMAX   =    1.630    core radius for proj-oper                               
   RAUG   =    1.300    factor for augmentation sphere                          
   RDEP   =    1.601    radius for radial grids                                 
   RDEPT  =    1.200    core radius for aug-charge                              
                                                                                
   Atomic configuration                                                         
    5 entries                                                                   
     n  l   j            E        occ.                                          
     1  0  0.50      -273.3789   2.0000                                         
     2  0  0.50       -13.7508   2.0000                                         
     2  1  0.50        -5.2854   2.0000                                         
     3  2  1.50        -5.4423   0.0000                                         
     4  3  2.50        -5.4423   0.0000                                         
   Description                                                                  
     l       E           TYP  RCUT    TYP  RCUT                                 
     0    -13.7508457     23  1.200                                             
     0     -7.5219285     23  1.200                                             
     0    272.1165200     23  1.300                                             
     1     -5.2854382     23  1.500                                             
     1    108.8466080     23  1.500                                             
     2     27.2116520     23  1.500                                             
     2    190.4815640     23  1.600                                             
     3     54.4233040     23  1.400                                             
  local pseudopotential read in
  partial core-charges read in
  partial kinetic energy density read in
  kinetic energy density of atom read in
  atomic valenz-charges read in
  non local Contribution for L=           0  read in
    real space projection operators read in
  non local Contribution for L=           0  read in
    real space projection operators read in
  non local Contribution for L=           0  read in
    real space projection operators read in
  non local Contribution for L=           1  read in
    real space projection operators read in
  non local Contribution for L=           1  read in
    real space projection operators read in
  non local Contribution for L=           2  read in
    real space projection operators read in
  non local Contribution for L=           2  read in
    real space projection operators read in
    PAW grid and wavefunctions read in
 
   number of l-projection  operators is LMAX  =           7
   number of lm-projection operators is LMMAX =          19
 

 ----------------------------------------------------------------------------- 
|                                                                             |
|  ADVICE TO THIS USER RUNNING 'VASP/VAMP'   (HEAR YOUR MASTER'S VOICE ...):  |
|                                                                             |
|      You have a (more or less) 'small supercell' and for smaller cells      |
|      it is recommended  to use the reciprocal-space projection scheme!      |
|      The real space optimization is not  efficient for small cells and it   |
|      is also less accurate ...                                              |
|      Therefore set LREAL=.FALSE. in the  INCAR file                         |
|                                                                             |
 ----------------------------------------------------------------------------- 

 Optimization of the real space projectors (new method)

 maximal supplied QI-value         = 23.62
 optimisation between [QCUT,QGAM] = [ 11.57, 23.15] = [ 37.52,150.06] Ry 
 Optimized for a Real-space Cutoff    1.53 Angstroem

   l    n(q)    QCUT    max X(q) W(low)/X(q) W(high)/X(q)  e(spline) 
   0     11    11.575   116.464    0.19E-03    0.50E-03    0.68E-05
   0     11    11.575   116.329    0.18E-03    0.48E-03    0.66E-05
   0     11    11.575     0.942    0.91E-04    0.25E-03    0.30E-05
   1     10    11.575    68.203    0.23E-03    0.52E-03    0.69E-05
   1     10    11.575    60.250    0.22E-03    0.51E-03    0.68E-05
   1     10    11.575     2.381    0.21E-03    0.47E-03    0.62E-05
   2     10    11.575     2.237    0.20E-04    0.44E-04    0.41E-06
   2     10    11.575     2.486    0.52E-04    0.84E-04    0.58E-06
 Optimization of the real space projectors (new method)

 maximal supplied QI-value         = 23.62
 optimisation between [QCUT,QGAM] = [ 11.57, 23.15] = [ 37.52,150.06] Ry 
 Optimized for a Real-space Cutoff    1.40 Angstroem

   l    n(q)    QCUT    max X(q) W(low)/X(q) W(high)/X(q)  e(spline) 
   0     10    11.575   214.472    0.12E-03    0.51E-03    0.36E-05
   0     10    11.575   163.224    0.12E-03    0.51E-03    0.36E-05
   0     10    11.575     0.672    0.22E-03    0.83E-03    0.56E-05
   1      9    11.575     2.978    0.13E-04    0.16E-04    0.12E-06
   1      9    11.575     2.423    0.91E-04    0.11E-03    0.33E-06
   2      9    11.575     2.026    0.29E-04    0.65E-04    0.23E-06
   2      9    11.575     2.119    0.11E-03    0.87E-04    0.33E-06
  PAW_PBE O_GW_new 19Mar2012            :
 energy of atom  1       EATOM= -432.3788
 kinetic energy error for atom=    0.0246 (will be added to EATOM!!)
  PAW_PBE C_GW_new 19Mar2012            :
 energy of atom  2       EATOM= -147.1560
 kinetic energy error for atom=    0.0071 (will be added to EATOM!!)
 
 
 POSCAR: C  O                                    
  positions in direct lattice
  velocities in cartesian coordinates
 exchange correlation table for  LEXCH =        8
   RHO(1)=    0.500       N(1)  =     2000
   RHO(2)=  100.500       N(2)  =     4000

 VTST: version 3.2, (02/03/18)

 CHAIN: initializing optimizer
 
 OPT: Using VASP Conjugate-Gradient optimizer
 CHAIN: Read ICHAIN            0
 
 POSCAR: C  O                                    
  positions in direct lattice
  velocities in cartesian coordinates
 


--------------------------------------------------------------------------------------------------------


 ion  position               nearest neighbor table
   1  0.480  0.475  0.604-   2 1.04
   2  0.609  0.619  0.540-   1 1.04
 

IMPORTANT INFORMATION: All symmetrisations will be switched off!
NOSYMM: (Re-)initialisation of all symmetry stuff for point group C_1.

 
 
 KPOINTS: mof                                     

Automatic generation of k-mesh.
Space group operators:
 irot       det(A)        alpha          n_x          n_y          n_z        tau_x        tau_y        tau_z
    1     1.000000     0.000000     1.000000     0.000000     0.000000     0.000000     0.000000     0.000000
 
 Subroutine IBZKPT returns following result:
 ===========================================
 
 Found      1 irreducible k-points:
 
 Following reciprocal coordinates:
            Coordinates               Weight
  0.000000  0.000000  0.000000      1.000000
 
 Following cartesian coordinates:
            Coordinates               Weight
  0.000000  0.000000  0.000000      1.000000
 


--------------------------------------------------------------------------------------------------------




 Dimension of arrays:
   k-points           NKPTS =      1   k-points in BZ     NKDIM =      1   number of bands    NBANDS=     12
   number of dos      NEDOS =    301   number of ions     NIONS =      2
   non local maximal  LDIM  =      8   non local SUM 2l+1 LMDIM =     22
   total plane-waves  NPLWV =  72000
   max r-space proj   IRMAX =   7676   max aug-charges    IRDMAX=   5602
   dimension x,y,z NGX =    40 NGY =   36 NGZ =   50
   dimension x,y,z NGXF=    80 NGYF=   72 NGZF=  100
   support grid    NGXF=    80 NGYF=   72 NGZF=  100
   ions per type =               1   1
   NGX,Y,Z   is equivalent  to a cutoff of  12.65, 12.40, 12.51 a.u.
   NGXF,Y,Z  is equivalent  to a cutoff of  25.30, 24.80, 25.02 a.u.

 SYSTEM =  Co–organic framework                  
 POSCAR =  C  O                                    

 Startparameter for this run:
   NWRITE =      2    write-flag & timer
   PREC   = accura    normal or accurate (medium, high low for compatibility)
   ISTART =      0    job   : 0-new  1-cont  2-samecut
   ICHARG =      2    charge: 1-file 2-atom 10-const
   ISPIN  =      2    spin polarized calculation?
   LNONCOLLINEAR =      F non collinear calculations
   LSORBIT =      F    spin-orbit coupling
   INIWAV =      1    electr: 0-lowe 1-rand  2-diag
   LASPH  =      F    aspherical Exc in radial PAW
   METAGGA=      F    non-selfconsistent MetaGGA calc.

 Electronic Relaxation 1
   ENCUT  =  520.0 eV  38.22 Ry    6.18 a.u.   9.77  8.97 12.35*2*pi/ulx,y,z
   ENINI  =  520.0     initial cutoff
   ENAUG  = 1213.9 eV  augmentation charge cutoff
   NELM   =    100;   NELMIN=  5; NELMDL=  0     # of ELM steps 
   EDIFF  = 0.1E-05   stopping-criterion for ELM
   LREAL  =      T    real-space projection
   NLSPLINE    = F    spline interpolate recip. space projectors
   LCOMPAT=      F    compatible to vasp.4.4
   GGA_COMPAT  = T    GGA compatible to vasp.4.4-vasp.4.6
   LMAXPAW     = -100 max onsite density
   LMAXMIX     =    2 max onsite mixed and CHGCAR
   VOSKOWN=      0    Vosko Wilk Nusair interpolation
   ROPT   =   -0.00025  -0.00025
 Ionic relaxation
   EDIFFG = -.5E-02   stopping-criterion for IOM
   NSW    =   1000    number of steps for IOM
   NBLOCK =      1;   KBLOCK =   1000    inner block; outer block 
   IBRION =      2    ionic relax: 0-MD 1-quasi-New 2-CG
   NFREE  =      1    steps in history (QN), initial steepest desc. (CG)
   ISIF   =      3    stress and relaxation
   IWAVPR =     11    prediction:  0-non 1-charg 2-wave 3-comb
   ISYM   =      0    0-nonsym 1-usesym 2-fastsym
   LCORR  =      T    Harris-Foulkes like correction to forces

   POTIM  = 0.5000    time-step for ionic-motion
   TEIN   =    0.0    initial temperature
   TEBEG  =    0.0;   TEEND  =   0.0 temperature during run
   SMASS  =  -3.00    Nose mass-parameter (am)
   estimated Nose-frequenzy (Omega)   =  0.10E-29 period in steps =****** mass=  -0.632E-27a.u.
   SCALEE = 1.0000    scale energy and forces
   NPACO  =    256;   APACO  = 16.0  distance and # of slots for P.C.
   PSTRESS=    0.0 pullay stress

  Mass of Ions in am
   POMASS =  16.00 12.01
  Ionic Valenz
   ZVAL   =   6.00  4.00
  Atomic Wigner-Seitz radii
   RWIGS  =  -1.00 -1.00
  virtual crystal weights 
   VCA    =   1.00  1.00
   NELECT =      10.0000    total number of electrons
   NUPDOWN=      -1.0000    fix difference up-down

 DOS related values:
   EMIN   =  10.00;   EMAX   =-10.00  energy-range for DOS
   EFERMI =   0.00
   ISMEAR =     0;   SIGMA  =   0.05  broadening in eV -4-tet -1-fermi 0-gaus

 Electronic relaxation 2 (details)
   IALGO  =     68    algorithm
   LDIAG  =      T    sub-space diagonalisation (order eigenvalues)
   LSUBROT=      F    optimize rotation matrix (better conditioning)
   TURBO    =      0    0=normal 1=particle mesh
   IRESTART =      0    0=no restart 2=restart with 2 vectors
   NREBOOT  =      0    no. of reboots
   NMIN     =      0    reboot dimension
   EREF     =   0.00    reference energy to select bands
   IMIX   =      4    mixing-type and parameters
     AMIX     =   0.40;   BMIX     =  1.00
     AMIX_MAG =   1.60;   BMIX_MAG =  1.00
     AMIN     =   0.10
     WC   =   100.;   INIMIX=   1;  MIXPRE=   1;  MAXMIX= -45

 Intra band minimization:
   WEIMIN = 0.0010     energy-eigenvalue tresh-hold
   EBREAK =  0.21E-07  absolut break condition
   DEPER  =   0.30     relativ break condition  

   TIME   =   0.40     timestep for ELM

  volume/ion in A,a.u.               =      71.35       481.47
  Fermi-wavevector in a.u.,A,eV,Ry     =   0.674954  1.275478  6.198307  0.455563
  Thomas-Fermi vector in A             =   1.751826
 
 Write flags
   LWAVE        =      F    write WAVECAR
   LDOWNSAMPLE  =      F    k-point downsampling of WAVECAR
   LCHARG       =      T    write CHGCAR
   LVTOT        =      F    write LOCPOT, total local potential
   LVHAR        =      F    write LOCPOT, Hartree potential only
   LELF         =      F    write electronic localiz. function (ELF)
   LORBIT       =      0    0 simple, 1 ext, 2 COOP (PROOUT), +10 PAW based schemes


 Dipole corrections
   LMONO  =      F    monopole corrections only (constant potential shift)
   LDIPOL =      F    correct potential (dipole corrections)
   IDIPOL =      0    1-x, 2-y, 3-z, 4-all directions 
   EPSILON=  1.0000000 bulk dielectric constant

 Exchange correlation treatment:
   GGA     =    --    GGA type
   LEXCH   =     8    internal setting for exchange type
   VOSKOWN=      0    Vosko Wilk Nusair interpolation
   LHFCALC =     F    Hartree Fock is set to
   LHFONE  =     F    Hartree Fock one center treatment
   AEXX    =    0.0000 exact exchange contribution

 Linear response parameters
   LEPSILON=     F    determine dielectric tensor
   LRPA    =     F    only Hartree local field effects (RPA)
   LNABLA  =     F    use nabla operator in PAW spheres
   LVEL    =     F    velocity operator in full k-point grid
   LINTERFAST=   F  fast interpolation
   KINTER  =     0    interpolate to denser k-point grid
   CSHIFT  =0.1000    complex shift for real part using Kramers Kronig
   OMEGAMAX=  -1.0    maximum frequency
   DEG_THRESHOLD= 0.2000000E-02 threshold for treating states as degnerate
   RTIME   =   -0.100 relaxation time in fs
  (WPLASMAI=    0.000 imaginary part of plasma frequency in eV, 0.658/RTIME)
   DFIELD  = 0.0000000 0.0000000 0.0000000 field for delta impulse in time
 
 Orbital magnetization related:
   ORBITALMAG=     F  switch on orbital magnetization
   LCHIMAG   =     F  perturbation theory with respect to B field
   DQ        =  0.001000  dq finite difference perturbation B field
   LLRAUG    =     F  two centre corrections for induced B field



--------------------------------------------------------------------------------------------------------


 conjugate gradient relaxation of ions
 charge density and potential will be updated during run
 spin polarized calculation
 RMM-DIIS sequential band-by-band and
  variant of blocked Davidson during initial phase
 perform sub-space diagonalisation
    before iterative eigenvector-optimisation
 modified Broyden-mixing scheme, WC =      100.0
 initial mixing is a Kerker type mixing with AMIX =  0.4000 and BMIX =      1.0000
 Hartree-type preconditioning will be used
 using additional bands            7
 real space projection scheme for non local part
 use partial core corrections
 calculate Harris-corrections to forces 
   (improved forces if not selfconsistent)
 use gradient corrections 
 use of overlap-Matrix (Vanderbilt PP)
 Gauss-broadening in eV      SIGMA  =   0.05


--------------------------------------------------------------------------------------------------------


  energy-cutoff  :      520.00
  volume of cell :      142.69
      direct lattice vectors                 reciprocal lattice vectors
     5.183626244  0.714111075 -0.503829286     0.189429172  0.081998928  0.080357314
    -1.814920332  4.464097786 -0.276917889    -0.031823989  0.209149445 -0.030978206
    -2.760660059  0.472439787  6.025711535     0.014376283  0.016467878  0.171250805

  length of vectors
     5.256784151  4.826881848  6.644820751     0.221505154  0.213812783  0.172640397


 
 k-points in units of 2pi/SCALE and weight: mof                                     
   0.00000000  0.00000000  0.00000000       1.000
 
 k-points in reciprocal lattice and weights: mof                                     
   0.00000000  0.00000000  0.00000000       1.000
 
 position of ions in fractional coordinates (direct lattice) 
   0.47980337  0.47486042  0.60390684
   0.60883563  0.61941158  0.53965116
 
 position of ions in cartesian coordinates  (Angst):
  -0.04189397  2.74776586  3.26573207
   0.54200027  3.45484281  2.77350686
 


--------------------------------------------------------------------------------------------------------


 k-point  1 :   0.0000 0.0000 0.0000  plane waves:    3841

 maximum and minimum number of plane-waves per node :       961      960

 maximum number of plane-waves:      3841
 maximum index in each direction: 
   IXMAX=    9   IYMAX=    8   IZMAX=   12
   IXMIN=   -9   IYMIN=   -8   IZMIN=  -12


 real space projection operators:
  total allocation   :       2114.27 KBytes
  max/ min on nodes  :        534.14        524.61


 parallel 3D FFT for wavefunctions:
    minimum data exchange during FFTs selected (reduces bandwidth)
 parallel 3D FFT for charge:
    minimum data exchange during FFTs selected (reduces bandwidth)


 total amount of memory used by VASP MPI-rank0    36283. kBytes
=======================================================================

   base      :      30000. kBytes
   nonlr-proj:        906. kBytes
   fftplans  :       1476. kBytes
   grid      :       3792. kBytes
   one-center:         46. kBytes
   wavefun   :         63. kBytes
 
     INWAV:  cpu time    0.0010: real time    0.0001
 Broyden mixing: mesh for mixing (old mesh)
   NGX = 19   NGY = 17   NGZ = 25
  (NGX  = 80   NGY  = 72   NGZ  =100)
  gives a total of   8075 points

 initial charge density was supplied:
 charge density of overlapping atoms calculated
 number of electron      10.0000000 magnetization       0.0000000
 keeping initial charge density in first step


--------------------------------------------------------------------------------------------------------


 Maximum index for non-local projection operator         1855
 Maximum index for augmentation-charges          307 (set IRDMAX)


--------------------------------------------------------------------------------------------------------


 First call to EWALD:  gamma=   0.339
 Maximum number of real-space cells 3x 3x 3
 Maximum number of reciprocal cells 3x 3x 3

    FEWALD:  cpu time    0.0020: real time    0.0022


--------------------------------------- Iteration      1(   1)  ---------------------------------------


    POTLOK:  cpu time    0.0380: real time    0.0398
    SETDIJ:  cpu time    0.0070: real time    0.0064
     EDDAV:  cpu time    0.0180: real time    0.0178
       DOS:  cpu time    0.0000: real time    0.0002
    --------------------------------------------
      LOOP:  cpu time    0.0630: real time    0.0642

 eigenvalue-minimisations  :    48
 total energy-change (2. order) : 0.7034050E+02  (-0.4333178E+03)
 number of electron      10.0000000 magnetization       0.0000000
 augmentation part       10.0000000 magnetization       0.0000000

 Free energy of the ion-electron system (eV)
  ---------------------------------------------------
  alpha Z        PSCENC =         1.06591482
  Ewald energy   TEWEN  =       -51.71588285
  -Hartree energ DENC   =      -410.49799785
  -exchange      EXHF   =         0.00000000
  -V(xc)+E(xc)   XCENC  =        32.00916624
  PAW double counting   =       463.69512993     -457.43959568
  entropy T*S    EENTRO =        -0.00000000
  eigenvalues    EBANDS =       -86.27936359
  atomic energy  EATOM  =       579.50312721
  Solvation  Ediel_sol  =         0.00000000
  ---------------------------------------------------
  free energy    TOTEN  =        70.34049822 eV

  energy without entropy =       70.34049822  energy(sigma->0) =       70.34049822


--------------------------------------------------------------------------------------------------------




--------------------------------------- Iteration      1(   2)  ---------------------------------------


     EDDAV:  cpu time    0.0130: real time    0.0144
       DOS:  cpu time    0.0000: real time    0.0001
    --------------------------------------------
      LOOP:  cpu time    0.0130: real time    0.0145

 eigenvalue-minimisations  :    48
 total energy-change (2. order) :-0.7955617E+02  (-0.7955617E+02)
 number of electron      10.0000000 magnetization       0.0000000
 augmentation part       10.0000000 magnetization       0.0000000

 Free energy of the ion-electron system (eV)
  ---------------------------------------------------
  alpha Z        PSCENC =         1.06591482
  Ewald energy   TEWEN  =       -51.71588285
  -Hartree energ DENC   =      -410.49799785
  -exchange      EXHF   =         0.00000000
  -V(xc)+E(xc)   XCENC  =        32.00916624
  PAW double counting   =       463.69512993     -457.43959568
  entropy T*S    EENTRO =        -0.00000000
  eigenvalues    EBANDS =      -165.83553705
  atomic energy  EATOM  =       579.50312721
  Solvation  Ediel_sol  =         0.00000000
  ---------------------------------------------------
  free energy    TOTEN  =        -9.21567523 eV

  energy without entropy =       -9.21567523  energy(sigma->0) =       -9.21567523


--------------------------------------------------------------------------------------------------------




--------------------------------------- Iteration      1(   3)  ---------------------------------------


     EDDAV:  cpu time    0.0240: real time    0.0239
       DOS:  cpu time    0.0000: real time    0.0001
    --------------------------------------------
      LOOP:  cpu time    0.0240: real time    0.0240

 eigenvalue-minimisations  :    84
 total energy-change (2. order) :-0.6556856E+01  (-0.6556856E+01)
 number of electron      10.0000000 magnetization       0.0000000
 augmentation part       10.0000000 magnetization       0.0000000

 Free energy of the ion-electron system (eV)
  ---------------------------------------------------
  alpha Z        PSCENC =         1.06591482
  Ewald energy   TEWEN  =       -51.71588285
  -Hartree energ DENC   =      -410.49799785
  -exchange      EXHF   =         0.00000000
  -V(xc)+E(xc)   XCENC  =        32.00916624
  PAW double counting   =       463.69512993     -457.43959568
  entropy T*S    EENTRO =        -0.00000000
  eigenvalues    EBANDS =      -172.39239329
  atomic energy  EATOM  =       579.50312721
  Solvation  Ediel_sol  =         0.00000000
  ---------------------------------------------------
  free energy    TOTEN  =       -15.77253147 eV

  energy without entropy =      -15.77253147  energy(sigma->0) =      -15.77253147


--------------------------------------------------------------------------------------------------------




--------------------------------------- Iteration      1(   4)  ---------------------------------------


     EDDAV:  cpu time    0.0210: real time    0.0205
       DOS:  cpu time    0.0000: real time    0.0001
    --------------------------------------------
      LOOP:  cpu time    0.0210: real time    0.0205

 eigenvalue-minimisations  :    72
 total energy-change (2. order) :-0.1026656E-01  (-0.1026656E-01)
 number of electron      10.0000000 magnetization       0.0000000
 augmentation part       10.0000000 magnetization       0.0000000

 Free energy of the ion-electron system (eV)
  ---------------------------------------------------
  alpha Z        PSCENC =         1.06591482
  Ewald energy   TEWEN  =       -51.71588285
  -Hartree energ DENC   =      -410.49799785
  -exchange      EXHF   =         0.00000000
  -V(xc)+E(xc)   XCENC  =        32.00916624
  PAW double counting   =       463.69512993     -457.43959568
  entropy T*S    EENTRO =        -0.00000000
  eigenvalues    EBANDS =      -172.40265985
  atomic energy  EATOM  =       579.50312721
  Solvation  Ediel_sol  =         0.00000000
  ---------------------------------------------------
  free energy    TOTEN  =       -15.78279803 eV

  energy without entropy =      -15.78279803  energy(sigma->0) =      -15.78279803


--------------------------------------------------------------------------------------------------------




--------------------------------------- Iteration      1(   5)  ---------------------------------------


     EDDAV:  cpu time    0.0230: real time    0.0232
       DOS:  cpu time    0.0000: real time    0.0001
    CHARGE:  cpu time    0.0040: real time    0.0039
    MIXING:  cpu time    0.0010: real time    0.0012
    --------------------------------------------
      LOOP:  cpu time    0.0280: real time    0.0284

 eigenvalue-minimisations  :    84
 total energy-change (2. order) :-0.3262066E-04  (-0.3262068E-04)
 number of electron      10.0000004 magnetization       0.0000000
 augmentation part        0.6662027 magnetization       0.0000013

 Broyden mixing:
  rms(total) = 0.23891E+01    rms(broyden)= 0.23889E+01
  rms(prec ) = 0.25627E+01
  weight for this iteration     100.00

 Free energy of the ion-electron system (eV)
  ---------------------------------------------------
  alpha Z        PSCENC =         1.06591482
  Ewald energy   TEWEN  =       -51.71588285
  -Hartree energ DENC   =      -410.49799785
  -exchange      EXHF   =         0.00000000
  -V(xc)+E(xc)   XCENC  =        32.00916624
  PAW double counting   =       463.69512993     -457.43959568
  entropy T*S    EENTRO =        -0.00000000
  eigenvalues    EBANDS =      -172.40269247
  atomic energy  EATOM  =       579.50312721
  Solvation  Ediel_sol  =         0.00000000
  ---------------------------------------------------
  free energy    TOTEN  =       -15.78283065 eV

  energy without entropy =      -15.78283065  energy(sigma->0) =      -15.78283065


--------------------------------------------------------------------------------------------------------




--------------------------------------- Iteration      1(   6)  ---------------------------------------


    POTLOK:  cpu time    0.0350: real time    0.0350
    SETDIJ:  cpu time    0.0070: real time    0.0067
    EDDIAG:  cpu time    0.0030: real time    0.0030
  RMM-DIIS:  cpu time    0.0110: real time    0.0112
    ORTHCH:  cpu time    0.0000: real time    0.0003
       DOS:  cpu time    0.0000: real time    0.0001
    CHARGE:  cpu time    0.0040: real time    0.0036
    MIXING:  cpu time    0.0010: real time    0.0009
    --------------------------------------------
      LOOP:  cpu time    0.0610: real time    0.0607

 eigenvalue-minimisations  :    48
 total energy-change (2. order) : 0.1212564E+01  (-0.1813472E+00)
 number of electron      10.0000003 magnetization       0.0000000
 augmentation part        0.5949677 magnetization       0.0000333

 Broyden mixing:
  rms(total) = 0.13401E+01    rms(broyden)= 0.13401E+01
  rms(prec ) = 0.14001E+01
  weight for this iteration     100.00

 eigenvalues of (default mixing * dielectric matrix)
  average eigenvalue GAMMA=   2.1026
  2.1026

 Free energy of the ion-electron system (eV)
  ---------------------------------------------------
  alpha Z        PSCENC =         1.06591482
  Ewald energy   TEWEN  =       -51.71588285
  -Hartree energ DENC   =      -428.30818107
  -exchange      EXHF   =         0.00000000
  -V(xc)+E(xc)   XCENC  =        32.99405247
  PAW double counting   =       733.91510775     -727.78426570
  entropy T*S    EENTRO =        -0.00000000
  eigenvalues    EBANDS =      -154.24013964
  atomic energy  EATOM  =       579.50312721
  Solvation  Ediel_sol  =         0.00000000
  ---------------------------------------------------
  free energy    TOTEN  =       -14.57026702 eV

  energy without entropy =      -14.57026702  energy(sigma->0) =      -14.57026702


--------------------------------------------------------------------------------------------------------




--------------------------------------- Iteration      1(   7)  ---------------------------------------


    POTLOK:  cpu time    0.0340: real time    0.0339
    SETDIJ:  cpu time    0.0050: real time    0.0057
    EDDIAG:  cpu time    0.0030: real time    0.0027
  RMM-DIIS:  cpu time    0.0120: real time    0.0119
    ORTHCH:  cpu time    0.0000: real time    0.0004
       DOS:  cpu time    0.0000: real time    0.0001
    CHARGE:  cpu time    0.0040: real time    0.0033
    MIXING:  cpu time    0.0010: real time    0.0008
    --------------------------------------------
      LOOP:  cpu time    0.0590: real time    0.0588

 eigenvalue-minimisations  :    48
 total energy-change (2. order) : 0.2395265E+00  (-0.1187284E+00)
 number of electron      10.0000003 magnetization       0.0000000
 augmentation part        0.5939542 magnetization       0.0000220

 Broyden mixing:
  rms(total) = 0.30512E+00    rms(broyden)= 0.30511E+00
  rms(prec ) = 0.33113E+00
  weight for this iteration     100.00

 eigenvalues of (default mixing * dielectric matrix)
  average eigenvalue GAMMA=   1.6488
  0.9388  2.3587

 Free energy of the ion-electron system (eV)
  ---------------------------------------------------
  alpha Z        PSCENC =         1.06591482
  Ewald energy   TEWEN  =       -51.71588285
  -Hartree energ DENC   =      -438.39764463
  -exchange      EXHF   =         0.00000000
  -V(xc)+E(xc)   XCENC  =        33.58439442
  PAW double counting   =      1106.09230109    -1100.14096653
  entropy T*S    EENTRO =        -0.00000000
  eigenvalues    EBANDS =      -144.32198410
  atomic energy  EATOM  =       579.50312721
  Solvation  Ediel_sol  =         0.00000000
  ---------------------------------------------------
  free energy    TOTEN  =       -14.33074057 eV

  energy without entropy =      -14.33074057  energy(sigma->0) =      -14.33074057


--------------------------------------------------------------------------------------------------------




--------------------------------------- Iteration      1(   8)  ---------------------------------------


    POTLOK:  cpu time    0.0390: real time    0.0408
    SETDIJ:  cpu time    0.0060: real time    0.0057
    EDDIAG:  cpu time    0.0030: real time    0.0027
  RMM-DIIS:  cpu time    0.0100: real time    0.0104
    ORTHCH:  cpu time    0.0010: real time    0.0004
       DOS:  cpu time    0.0000: real time    0.0001
    CHARGE:  cpu time    0.0030: real time    0.0033
    MIXING:  cpu time    0.0010: real time    0.0008
    --------------------------------------------
      LOOP:  cpu time    0.0630: real time    0.0643

 eigenvalue-minimisations  :    48
 total energy-change (2. order) : 0.4091225E-02  (-0.8235156E-02)
 number of electron      10.0000003 magnetization      -0.0000000
 augmentation part        0.5747395 magnetization       0.0000136

 Broyden mixing:
  rms(total) = 0.10055E+00    rms(broyden)= 0.10053E+00
  rms(prec ) = 0.13327E+00
  weight for this iteration     100.00

 eigenvalues of (default mixing * dielectric matrix)
  average eigenvalue GAMMA=   1.8450
  2.7731  0.8458  1.9161

 Free energy of the ion-electron system (eV)
  ---------------------------------------------------
  alpha Z        PSCENC =         1.06591482
  Ewald energy   TEWEN  =       -51.71588285
  -Hartree energ DENC   =      -439.34399751
  -exchange      EXHF   =         0.00000000
  -V(xc)+E(xc)   XCENC  =        33.65172925
  PAW double counting   =      1196.34930381    -1190.44180006
  entropy T*S    EENTRO =        -0.00000000
  eigenvalues    EBANDS =      -143.39504402
  atomic energy  EATOM  =       579.50312721
  Solvation  Ediel_sol  =         0.00000000
  ---------------------------------------------------
  free energy    TOTEN  =       -14.32664935 eV

  energy without entropy =      -14.32664935  energy(sigma->0) =      -14.32664935


--------------------------------------------------------------------------------------------------------




--------------------------------------- Iteration      1(   9)  ---------------------------------------


    POTLOK:  cpu time    0.0330: real time    0.0336
    SETDIJ:  cpu time    0.0060: real time    0.0057
    EDDIAG:  cpu time    0.0030: real time    0.0027
  RMM-DIIS:  cpu time    0.0100: real time    0.0103
    ORTHCH:  cpu time    0.0000: real time    0.0003
       DOS:  cpu time    0.0010: real time    0.0001
    CHARGE:  cpu time    0.0030: real time    0.0033
    MIXING:  cpu time    0.0010: real time    0.0008
    --------------------------------------------
      LOOP:  cpu time    0.0570: real time    0.0569

 eigenvalue-minimisations  :    48
 total energy-change (2. order) : 0.9778145E-02  (-0.5850900E-02)
 number of electron      10.0000003 magnetization       0.0000000
 augmentation part        0.5822743 magnetization       0.0000080

 Broyden mixing:
  rms(total) = 0.27545E-01    rms(broyden)= 0.27541E-01
  rms(prec ) = 0.38697E-01
  weight for this iteration     100.00

 eigenvalues of (default mixing * dielectric matrix)
  average eigenvalue GAMMA=   1.5243
  2.5421  1.5773  0.8348  1.1429

 Free energy of the ion-electron system (eV)
  ---------------------------------------------------
  alpha Z        PSCENC =         1.06591482
  Ewald energy   TEWEN  =       -51.71588285
  -Hartree energ DENC   =      -435.98556486
  -exchange      EXHF   =         0.00000000
  -V(xc)+E(xc)   XCENC  =        33.48605031
  PAW double counting   =      1224.21630085    -1218.31998476
  entropy T*S    EENTRO =        -0.00000000
  eigenvalues    EBANDS =      -146.56683192
  atomic energy  EATOM  =       579.50312721
  Solvation  Ediel_sol  =         0.00000000
  ---------------------------------------------------
  free energy    TOTEN  =       -14.31687120 eV

  energy without entropy =      -14.31687120  energy(sigma->0) =      -14.31687120


--------------------------------------------------------------------------------------------------------




--------------------------------------- Iteration      1(  10)  ---------------------------------------


    POTLOK:  cpu time    0.0330: real time    0.0337
    SETDIJ:  cpu time    0.0060: real time    0.0057
    EDDIAG:  cpu time    0.0030: real time    0.0027
  RMM-DIIS:  cpu time    0.0100: real time    0.0103
    ORTHCH:  cpu time    0.0000: real time    0.0004
       DOS:  cpu time    0.0010: real time    0.0001
    CHARGE:  cpu time    0.0030: real time    0.0033
    MIXING:  cpu time    0.0010: real time    0.0009
    --------------------------------------------
      LOOP:  cpu time    0.0570: real time    0.0571

 eigenvalue-minimisations  :    48
 total energy-change (2. order) : 0.1425971E-02  (-0.1343635E-03)
 number of electron      10.0000003 magnetization       0.0000000
 augmentation part        0.5806652 magnetization       0.0000025

 Broyden mixing:
  rms(total) = 0.77222E-02    rms(broyden)= 0.77214E-02
  rms(prec ) = 0.11171E-01
  weight for this iteration     100.00

 eigenvalues of (default mixing * dielectric matrix)
  average eigenvalue GAMMA=   1.5161
  2.6392  1.5503  1.5503  0.8380  1.0026

 Free energy of the ion-electron system (eV)
  ---------------------------------------------------
  alpha Z        PSCENC =         1.06591482
  Ewald energy   TEWEN  =       -51.71588285
  -Hartree energ DENC   =      -436.84026139
  -exchange      EXHF   =         0.00000000
  -V(xc)+E(xc)   XCENC  =        33.52914891
  PAW double counting   =      1220.26824588    -1214.36978661
  entropy T*S    EENTRO =        -0.00000000
  eigenvalues    EBANDS =      -145.75595119
  atomic energy  EATOM  =       579.50312721
  Solvation  Ediel_sol  =         0.00000000
  ---------------------------------------------------
  free energy    TOTEN  =       -14.31544523 eV

  energy without entropy =      -14.31544523  energy(sigma->0) =      -14.31544523


--------------------------------------------------------------------------------------------------------




--------------------------------------- Iteration      1(  11)  ---------------------------------------


    POTLOK:  cpu time    0.0330: real time    0.0336
    SETDIJ:  cpu time    0.0060: real time    0.0057
    EDDIAG:  cpu time    0.0030: real time    0.0027
  RMM-DIIS:  cpu time    0.0100: real time    0.0103
    ORTHCH:  cpu time    0.0000: real time    0.0003
       DOS:  cpu time    0.0000: real time    0.0001
    CHARGE:  cpu time    0.0040: real time    0.0033
    MIXING:  cpu time    0.0010: real time    0.0009
    --------------------------------------------
      LOOP:  cpu time    0.0570: real time    0.0570

 eigenvalue-minimisations  :    48
 total energy-change (2. order) :-0.2347473E-03  (-0.3278270E-04)
 number of electron      10.0000003 magnetization      -0.0000000
 augmentation part        0.5802463 magnetization       0.0000032

 Broyden mixing:
  rms(total) = 0.40638E-02    rms(broyden)= 0.40635E-02
  rms(prec ) = 0.62325E-02
  weight for this iteration     100.00

 eigenvalues of (default mixing * dielectric matrix)
  average eigenvalue GAMMA=   1.6046
  2.7594  2.3312  1.3616  1.3616  0.8302  0.9836

 Free energy of the ion-electron system (eV)
  ---------------------------------------------------
  alpha Z        PSCENC =         1.06591482
  Ewald energy   TEWEN  =       -51.71588285
  -Hartree energ DENC   =      -437.06513398
  -exchange      EXHF   =         0.00000000
  -V(xc)+E(xc)   XCENC  =        33.54065047
  PAW double counting   =      1222.30985432    -1216.41076671
  entropy T*S    EENTRO =        -0.00000000
  eigenvalues    EBANDS =      -145.54344326
  atomic energy  EATOM  =       579.50312721
  Solvation  Ediel_sol  =         0.00000000
  ---------------------------------------------------
  free energy    TOTEN  =       -14.31567998 eV

  energy without entropy =      -14.31567998  energy(sigma->0) =      -14.31567998


--------------------------------------------------------------------------------------------------------




--------------------------------------- Iteration      1(  12)  ---------------------------------------


    POTLOK:  cpu time    0.0320: real time    0.0336
    SETDIJ:  cpu time    0.0060: real time    0.0057
    EDDIAG:  cpu time    0.0030: real time    0.0027
  RMM-DIIS:  cpu time    0.0100: real time    0.0103
    ORTHCH:  cpu time    0.0000: real time    0.0004
       DOS:  cpu time    0.0000: real time    0.0001
    CHARGE:  cpu time    0.0040: real time    0.0033
    MIXING:  cpu time    0.0010: real time    0.0009
    --------------------------------------------
      LOOP:  cpu time    0.0560: real time    0.0570

 eigenvalue-minimisations  :    48
 total energy-change (2. order) :-0.9090128E-04  (-0.6604134E-05)
 number of electron      10.0000003 magnetization       0.0000000
 augmentation part        0.5803035 magnetization      -0.0000003

 Broyden mixing:
  rms(total) = 0.96580E-03    rms(broyden)= 0.96564E-03
  rms(prec ) = 0.18894E-02
  weight for this iteration     100.00

 eigenvalues of (default mixing * dielectric matrix)
  average eigenvalue GAMMA=   1.5053
  2.7707  2.4380  1.3668  1.3668  1.0280  0.8362  0.7305

 Free energy of the ion-electron system (eV)
  ---------------------------------------------------
  alpha Z        PSCENC =         1.06591482
  Ewald energy   TEWEN  =       -51.71588285
  -Hartree energ DENC   =      -436.99953063
  -exchange      EXHF   =         0.00000000
  -V(xc)+E(xc)   XCENC  =        33.53623835
  PAW double counting   =      1220.04450144    -1214.14339880
  entropy T*S    EENTRO =        -0.00000000
  eigenvalues    EBANDS =      -145.60674042
  atomic energy  EATOM  =       579.50312721
  Solvation  Ediel_sol  =         0.00000000
  ---------------------------------------------------
  free energy    TOTEN  =       -14.31577088 eV

  energy without entropy =      -14.31577088  energy(sigma->0) =      -14.31577088


--------------------------------------------------------------------------------------------------------




--------------------------------------- Iteration      1(  13)  ---------------------------------------


    POTLOK:  cpu time    0.0330: real time    0.0335
    SETDIJ:  cpu time    0.0060: real time    0.0057
    EDDIAG:  cpu time    0.0030: real time    0.0027
  RMM-DIIS:  cpu time    0.0100: real time    0.0103
    ORTHCH:  cpu time    0.0000: real time    0.0004
       DOS:  cpu time    0.0000: real time    0.0001
    CHARGE:  cpu time    0.0040: real time    0.0033
    MIXING:  cpu time    0.0010: real time    0.0010
    --------------------------------------------
      LOOP:  cpu time    0.0570: real time    0.0569

 eigenvalue-minimisations  :    48
 total energy-change (2. order) :-0.1530796E-04  (-0.1032178E-05)
 number of electron      10.0000003 magnetization       0.0000000
 augmentation part        0.5802591 magnetization      -0.0000015

 Broyden mixing:
  rms(total) = 0.84062E-03    rms(broyden)= 0.84060E-03
  rms(prec ) = 0.12071E-02
  weight for this iteration     100.00

 eigenvalues of (default mixing * dielectric matrix)
  average eigenvalue GAMMA=   1.6450
  3.3642  2.5266  2.1024  1.3448  1.3448  1.0075  0.8307  0.6393

 Free energy of the ion-electron system (eV)
  ---------------------------------------------------
  alpha Z        PSCENC =         1.06591482
  Ewald energy   TEWEN  =       -51.71588285
  -Hartree energ DENC   =      -437.04421938
  -exchange      EXHF   =         0.00000000
  -V(xc)+E(xc)   XCENC  =        33.53814757
  PAW double counting   =      1219.87520551    -1213.97388929
  entropy T*S    EENTRO =        -0.00000000
  eigenvalues    EBANDS =      -145.56418977
  atomic energy  EATOM  =       579.50312721
  Solvation  Ediel_sol  =         0.00000000
  ---------------------------------------------------
  free energy    TOTEN  =       -14.31578619 eV

  energy without entropy =      -14.31578619  energy(sigma->0) =      -14.31578619


--------------------------------------------------------------------------------------------------------




--------------------------------------- Iteration      1(  14)  ---------------------------------------


    POTLOK:  cpu time    0.0330: real time    0.0335
    SETDIJ:  cpu time    0.0060: real time    0.0056
    EDDIAG:  cpu time    0.0030: real time    0.0027
  RMM-DIIS:  cpu time    0.0090: real time    0.0099
    ORTHCH:  cpu time    0.0010: real time    0.0004
       DOS:  cpu time    0.0000: real time    0.0001
    CHARGE:  cpu time    0.0030: real time    0.0033
    MIXING:  cpu time    0.0010: real time    0.0011
    --------------------------------------------
      LOOP:  cpu time    0.0560: real time    0.0566

 eigenvalue-minimisations  :    40
 total energy-change (2. order) :-0.2015692E-05  (-0.2372115E-06)
 number of electron      10.0000003 magnetization      -0.0000000
 augmentation part        0.5802503 magnetization      -0.0000000

 Broyden mixing:
  rms(total) = 0.53378E-03    rms(broyden)= 0.53375E-03
  rms(prec ) = 0.75477E-03
  weight for this iteration     100.00

 eigenvalues of (default mixing * dielectric matrix)
  average eigenvalue GAMMA=   1.5960
  3.4646  2.5080  2.3242  1.3536  1.3536  1.0496  0.8546  0.8276  0.6280

 Free energy of the ion-electron system (eV)
  ---------------------------------------------------
  alpha Z        PSCENC =         1.06591482
  Ewald energy   TEWEN  =       -51.71588285
  -Hartree energ DENC   =      -437.05197270
  -exchange      EXHF   =         0.00000000
  -V(xc)+E(xc)   XCENC  =        33.53832967
  PAW double counting   =      1219.88284355    -1213.98155570
  entropy T*S    EENTRO =        -0.00000000
  eigenvalues    EBANDS =      -145.55659220
  atomic energy  EATOM  =       579.50312721
  Solvation  Ediel_sol  =         0.00000000
  ---------------------------------------------------
  free energy    TOTEN  =       -14.31578820 eV

  energy without entropy =      -14.31578820  energy(sigma->0) =      -14.31578820


--------------------------------------------------------------------------------------------------------




--------------------------------------- Iteration      1(  15)  ---------------------------------------


    POTLOK:  cpu time    0.0340: real time    0.0335
    SETDIJ:  cpu time    0.0050: real time    0.0057
    EDDIAG:  cpu time    0.0030: real time    0.0027
  RMM-DIIS:  cpu time    0.0100: real time    0.0097
    ORTHCH:  cpu time    0.0000: real time    0.0004
       DOS:  cpu time    0.0000: real time    0.0001
    --------------------------------------------
      LOOP:  cpu time    0.0520: real time    0.0521

 eigenvalue-minimisations  :    40
 total energy-change (2. order) : 0.3838352E-06  (-0.1720796E-06)
 number of electron      10.0000003 magnetization      -0.0000000
 augmentation part        0.5802503 magnetization      -0.0000000

 Free energy of the ion-electron system (eV)
  ---------------------------------------------------
  alpha Z        PSCENC =         1.06591482
  Ewald energy   TEWEN  =       -51.71588285
  -Hartree energ DENC   =      -437.03529685
  -exchange      EXHF   =         0.00000000
  -V(xc)+E(xc)   XCENC  =        33.53744110
  PAW double counting   =      1219.85628212    -1213.95508330
  entropy T*S    EENTRO =        -0.00000000
  eigenvalues    EBANDS =      -145.57229007
  atomic energy  EATOM  =       579.50312721
  Solvation  Ediel_sol  =         0.00000000
  ---------------------------------------------------
  free energy    TOTEN  =       -14.31578782 eV

  energy without entropy =      -14.31578782  energy(sigma->0) =      -14.31578782


--------------------------------------------------------------------------------------------------------




 average (electrostatic) potential at core
  the test charge radii are     0.6768  0.6557
  (the norm of the test charge is              1.0000)
       1-127.8211       2-125.3484
 
 
 
 E-fermi :  -7.4926     XC(G=0):  -3.2484     alpha+bet : -1.4275


 spin component 1

 k-point     1 :       0.0000    0.0000    0.0000
  band No.  band energies     occupation 
      1     -29.3633      1.00000
      2     -12.8438      1.00000
      3     -11.4350      1.00000
      4     -11.4010      1.00000
      5      -7.7430      1.00000
      6       0.0920      0.00000
      7       0.1387      0.00000
      8       0.3448      0.00000
      9       4.0828      0.00000
     10       4.4722      0.00000
     11       5.6286      0.00000
     12       6.0377      0.00000

 spin component 2

 k-point     1 :       0.0000    0.0000    0.0000
  band No.  band energies     occupation 
      1     -29.3633      1.00000
      2     -12.8438      1.00000
      3     -11.4350      1.00000
      4     -11.4010      1.00000
      5      -7.7430      1.00000
      6       0.0920      0.00000
      7       0.1387      0.00000
      8       0.3448      0.00000
      9       4.0828      0.00000
     10       4.4722      0.00000
     11       5.6286      0.00000
     12       6.0382      0.00000


--------------------------------------------------------------------------------------------------------


 soft charge-density along one line, spin component           1
         0         1         2         3         4         5         6         7         8         9
 total charge-density along one line
 
 soft charge-density along one line, spin component           2
         0         1         2         3         4         5         6         7         8         9
 total charge-density along one line
 
 pseudopotential strength for first ion, spin component:           1
 33.516  34.565  38.620  -0.101   0.070  -0.083  -0.120   0.083
 34.565  35.648  39.793  -0.104   0.072  -0.086  -0.124   0.086
 38.620  39.793  30.744  -0.008   0.005  -0.006  -0.009   0.006
 -0.101  -0.104  -0.008  -6.810   0.062  -0.075  -7.656   0.072
  0.070   0.072   0.005   0.062  -6.765   0.051   0.072  -7.604
 -0.083  -0.086  -0.006  -0.075   0.051  -6.782  -0.087   0.060
 -0.120  -0.124  -0.009  -7.656   0.072  -0.087  -8.592   0.084
  0.083   0.086   0.006   0.072  -7.604   0.060   0.084  -8.532
 -0.099  -0.102  -0.007  -0.087   0.060  -7.623  -0.101   0.069
  0.524   0.542   0.134  -2.436  -0.120   0.143  -3.793  -0.136
 -0.362  -0.375  -0.092  -0.120  -2.523  -0.099  -0.136  -3.891
  0.432   0.447   0.110   0.143  -0.099  -2.491   0.162  -0.112
  0.014   0.014  -0.007  -0.039   0.008  -0.042  -0.046   0.010
 -0.012  -0.012   0.006   0.032  -0.039   0.008   0.039  -0.047
 -0.003  -0.004   0.002   0.022   0.024   0.018   0.026   0.028
 -0.010  -0.010   0.005   0.008  -0.033   0.029   0.010  -0.039
 -0.003  -0.003   0.001   0.035  -0.002  -0.025   0.041  -0.002
  0.176   0.184  -0.085   0.410  -0.096   0.443   0.469  -0.110
 -0.148  -0.154   0.072  -0.344   0.410  -0.096  -0.393   0.470
 -0.043  -0.044   0.021  -0.224  -0.239  -0.185  -0.257  -0.274
 -0.122  -0.127   0.059  -0.096   0.338  -0.307  -0.110   0.387
 -0.034  -0.035   0.016  -0.356   0.019   0.249  -0.408   0.021
 pseudopotential strength for first ion, spin component:           2
 33.516  34.565  38.620  -0.101   0.070  -0.083  -0.120   0.083
 34.565  35.648  39.793  -0.104   0.072  -0.086  -0.124   0.086
 38.620  39.793  30.744  -0.008   0.005  -0.006  -0.009   0.006
 -0.101  -0.104  -0.008  -6.810   0.062  -0.075  -7.656   0.072
  0.070   0.072   0.005   0.062  -6.765   0.051   0.072  -7.604
 -0.083  -0.086  -0.006  -0.075   0.051  -6.782  -0.087   0.060
 -0.120  -0.124  -0.009  -7.656   0.072  -0.087  -8.592   0.084
  0.083   0.086   0.006   0.072  -7.604   0.060   0.084  -8.532
 -0.099  -0.102  -0.007  -0.087   0.060  -7.623  -0.101   0.069
  0.524   0.542   0.134  -2.436  -0.120   0.143  -3.793  -0.136
 -0.362  -0.375  -0.092  -0.120  -2.523  -0.099  -0.136  -3.891
  0.432   0.447   0.110   0.143  -0.099  -2.491   0.162  -0.112
  0.014   0.014  -0.007  -0.039   0.008  -0.042  -0.046   0.010
 -0.012  -0.012   0.006   0.032  -0.039   0.008   0.039  -0.047
 -0.003  -0.004   0.002   0.022   0.024   0.018   0.026   0.028
 -0.010  -0.010   0.005   0.008  -0.033   0.029   0.010  -0.039
 -0.003  -0.003   0.001   0.035  -0.002  -0.025   0.041  -0.002
  0.176   0.184  -0.085   0.410  -0.096   0.444   0.469  -0.110
 -0.148  -0.154   0.072  -0.344   0.410  -0.096  -0.393   0.470
 -0.043  -0.044   0.021  -0.224  -0.239  -0.185  -0.257  -0.274
 -0.122  -0.127   0.059  -0.096   0.338  -0.307  -0.110   0.387
 -0.034  -0.035   0.016  -0.356   0.019   0.249  -0.408   0.021
 total augmentation occupancy for first ion, spin component:           1
 22.027 -20.779   0.009  -9.995   6.969  -8.265   7.538  -5.279   6.242  -0.011   0.007  -0.008  -0.340   0.285   0.091   0.235
-20.779  21.407  -0.021   9.399  -6.560   7.780  -7.074   4.959  -5.864   0.042  -0.029   0.035   0.421  -0.353  -0.110  -0.291
  0.009  -0.021   0.000   0.000  -0.000   0.000  -0.009   0.006  -0.008  -0.001   0.001  -0.001  -0.003   0.002   0.001   0.002
 -9.995   9.399   0.000   5.724  -2.691   3.190  -4.011   2.685  -3.182   0.005   0.029  -0.035   0.097  -0.082  -0.100   0.047
  6.969  -6.560  -0.000  -2.691   3.755  -2.224   2.677  -2.053   2.217   0.029   0.026   0.024   0.046   0.160  -0.169   0.132
 -8.265   7.780   0.000   3.190  -2.224   4.507  -3.181   2.223  -2.807  -0.035   0.024   0.018   0.142   0.047  -0.083  -0.099
  7.538  -7.074  -0.009  -4.011   2.677  -3.181   3.946  -2.747   3.260   0.062  -0.046   0.055   0.070  -0.059  -0.008  -0.060
 -5.279   4.959   0.006   2.685  -2.053   2.223  -2.747   1.938  -2.278  -0.046   0.028  -0.038  -0.059   0.031   0.028   0.026
  6.242  -5.864  -0.008  -3.182   2.217  -2.807   3.260  -2.278   2.720   0.055  -0.039   0.041   0.053  -0.060  -0.007  -0.037
 -0.011   0.042  -0.001   0.005   0.029  -0.035   0.062  -0.046   0.055   0.005  -0.002   0.003   0.011  -0.010  -0.005  -0.005
  0.007  -0.029   0.001   0.029   0.026   0.024  -0.046   0.028  -0.039  -0.002   0.003  -0.002  -0.005   0.009  -0.003   0.008
 -0.008   0.035  -0.001  -0.035   0.024   0.018   0.055  -0.038   0.041   0.003  -0.002   0.003   0.011  -0.005  -0.004  -0.008
 -0.340   0.421  -0.003   0.097   0.046   0.142   0.070  -0.059   0.053   0.011  -0.005   0.011   0.045  -0.020  -0.022  -0.021
  0.285  -0.353   0.002  -0.082   0.160   0.047  -0.059   0.031  -0.060  -0.010   0.009  -0.005  -0.020   0.038  -0.006   0.023
  0.091  -0.110   0.001  -0.100  -0.169  -0.083  -0.008   0.028  -0.007  -0.005  -0.003  -0.004  -0.022  -0.006   0.026  -0.005
  0.235  -0.291   0.002   0.047   0.132  -0.099  -0.060   0.026  -0.037  -0.005   0.008  -0.008  -0.021   0.023  -0.005   0.029
  0.066  -0.081   0.000  -0.186  -0.008   0.174   0.002   0.011  -0.028  -0.006   0.001   0.003  -0.002   0.016   0.004  -0.011
 -0.002   0.005   0.000   0.003  -0.002   0.002  -0.005   0.004  -0.005  -0.000   0.000  -0.000  -0.000   0.000   0.000   0.000
  0.002  -0.004  -0.000  -0.002   0.001  -0.002   0.005  -0.003   0.004   0.000  -0.000   0.000   0.000  -0.000  -0.000  -0.000
  0.001  -0.001  -0.000  -0.000   0.001  -0.000   0.001  -0.001   0.001   0.000  -0.000   0.000   0.000  -0.000  -0.000  -0.000
  0.002  -0.003  -0.000  -0.002   0.001  -0.001   0.004  -0.003   0.003   0.000  -0.000   0.000   0.000  -0.000  -0.000  -0.000
  0.000  -0.001  -0.000   0.000   0.000  -0.001   0.001  -0.001   0.001   0.000  -0.000   0.000   0.000  -0.000  -0.000  -0.000
 total augmentation occupancy for first ion, spin component:           2
  0.000  -0.000  -0.000  -0.000  -0.000  -0.000   0.000  -0.000   0.000  -0.000   0.000  -0.000  -0.000  -0.000   0.000  -0.000
 -0.000   0.000   0.000   0.000   0.000   0.000  -0.000   0.000  -0.000   0.000  -0.000   0.000  -0.000   0.000  -0.000   0.000
 -0.000   0.000  -0.000  -0.000  -0.000  -0.000   0.000  -0.000   0.000   0.000  -0.000   0.000   0.000  -0.000   0.000  -0.000
 -0.000   0.000  -0.000   0.000   0.000   0.000  -0.000  -0.000  -0.000  -0.000  -0.000   0.000   0.000  -0.000  -0.000  -0.000
 -0.000   0.000  -0.000   0.000   0.000  -0.000  -0.000  -0.000   0.000  -0.000   0.000   0.000  -0.000   0.000  -0.000   0.000
 -0.000   0.000  -0.000   0.000  -0.000  -0.000  -0.000   0.000   0.000   0.000  -0.000  -0.000   0.000  -0.000  -0.000   0.000
  0.000  -0.000   0.000  -0.000  -0.000  -0.000   0.000   0.000   0.000  -0.000   0.000  -0.000  -0.000  -0.000   0.000   0.000
 -0.000   0.000  -0.000  -0.000  -0.000   0.000   0.000  -0.000  -0.000   0.000  -0.000   0.000   0.000  -0.000  -0.000  -0.000
  0.000  -0.000   0.000  -0.000   0.000   0.000   0.000  -0.000  -0.000  -0.000   0.000   0.000  -0.000   0.000   0.000  -0.000
 -0.000   0.000   0.000  -0.000  -0.000   0.000  -0.000   0.000  -0.000  -0.000  -0.000   0.000  -0.000  -0.000   0.000  -0.000
  0.000  -0.000  -0.000  -0.000   0.000  -0.000   0.000  -0.000   0.000  -0.000   0.000   0.000  -0.000   0.000   0.000   0.000
 -0.000   0.000   0.000   0.000   0.000  -0.000  -0.000   0.000   0.000   0.000   0.000  -0.000   0.000  -0.000  -0.000   0.000
 -0.000  -0.000   0.000   0.000  -0.000   0.000  -0.000   0.000  -0.000  -0.000  -0.000   0.000  -0.000   0.000  -0.000   0.000
 -0.000   0.000  -0.000  -0.000   0.000  -0.000  -0.000  -0.000   0.000  -0.000   0.000  -0.000   0.000   0.000   0.000  -0.000
  0.000  -0.000   0.000  -0.000  -0.000  -0.000   0.000  -0.000   0.000   0.000   0.000  -0.000  -0.000   0.000   0.000  -0.000
 -0.000   0.000  -0.000  -0.000   0.000   0.000   0.000  -0.000  -0.000  -0.000   0.000   0.000   0.000  -0.000  -0.000  -0.000
 -0.000   0.000  -0.000   0.000  -0.000  -0.000  -0.000   0.000   0.000   0.000   0.000  -0.000   0.000   0.000  -0.000  -0.000
  0.000  -0.000   0.000  -0.000   0.000  -0.000   0.000  -0.000   0.000  -0.000   0.000  -0.000  -0.000   0.000   0.000   0.000
  0.000  -0.000   0.000   0.000   0.000  -0.000   0.000  -0.000   0.000  -0.000   0.000  -0.000  -0.000   0.000   0.000   0.000
  0.000  -0.000   0.000  -0.000   0.000  -0.000  -0.000   0.000  -0.000  -0.000   0.000  -0.000  -0.000   0.000   0.000   0.000
 -0.000   0.000  -0.000   0.000  -0.000   0.000  -0.000   0.000  -0.000   0.000  -0.000   0.000   0.000  -0.000  -0.000  -0.000
 -0.000   0.000  -0.000   0.000  -0.000  -0.000  -0.000   0.000   0.000   0.000  -0.000  -0.000   0.000  -0.000  -0.000   0.000


------------------------ aborting loop because EDIFF is reached ----------------------------------------


    CHARGE:  cpu time    0.0040: real time    0.0034
    FORLOC:  cpu time    0.0010: real time    0.0011
    FORNL :  cpu time    0.0120: real time    0.0117
    STRESS:  cpu time    0.0340: real time    0.0337
    FORCOR:  cpu time    0.0340: real time    0.0339
    FORHAR:  cpu time    0.0040: real time    0.0037
    MIXING:  cpu time    0.0010: real time    0.0012
    OFIELD:  cpu time    0.0000: real time    0.0001

 ---------------------------------------------------------------------------------------------

         DFTD3 V3.0 Rev 1        
 IVDW         = 11
 DF pbe       
 parameters
 VDW_S6       =    1.0000
 VDW_S8       =    0.7220
 VDW_SR       =    1.2170
 rs18     =    1.0000
 alpha6   =   14.0000
 alpha8   =   16.0000
 k1-k3    =   16.0000    1.3333   -4.0000
 VDW_RADIUS   =   50.2022 A
 VDW_CNRADIUS =   21.1671 A
 Edisp (eV)   -0.01587

 E6    (eV) :    -0.0135
 E8    (eV) :    -0.0024
 % E8        : 15.13
    FORVDW:  cpu time    0.0170: real time    0.0172

  FORCE on cell =-STRESS in cart. coord.  units (eV):
  Direction    XX          YY          ZZ          XY          YZ          ZX
  --------------------------------------------------------------------------------------
  Alpha Z     1.06591     1.06591     1.06591
  Ewald       0.23765    51.46977  -103.42338   110.08050  -108.20700   -89.26297
  Hartree   165.70736   182.00164    89.33249    24.16080   -33.89804   -28.05292
  E(xc)     -46.48770   -46.36547   -46.56269     0.31480    -0.26586    -0.21955
  Local    -389.20582  -452.73204  -211.26592  -123.77398   133.40783   110.14617
  n-local    55.86764    56.11400    55.73143     0.67329    -0.57452    -0.48015
  augment    17.75688    17.82288    17.66879     0.13354    -0.13801    -0.11350
  Kinetic   199.81916   197.75590   200.85266    -5.36424     4.46222     3.66322
  Fock        0.00000     0.00000     0.00000     0.00000     0.00000     0.00000
  vdW        -0.03898    -0.04022    -0.01682     0.00679     0.00060     0.00053
  -------------------------------------------------------------------------------------
  Total       4.72211     7.09237     3.38248     6.23150    -5.21278    -4.31917
  in kB      53.02060    79.63419    37.97896    69.96819   -58.52994   -48.49627
  external pressure =       56.88 kB  Pullay stress =        0.00 kB


 VOLUME and BASIS-vectors are now :
 -----------------------------------------------------------------------------
  energy-cutoff  :      520.00
  volume of cell :      142.69
      direct lattice vectors                 reciprocal lattice vectors
     5.183626244  0.714111075 -0.503829286     0.189429172  0.081998928  0.080357314
    -1.814920332  4.464097786 -0.276917889    -0.031823989  0.209149445 -0.030978206
    -2.760660059  0.472439787  6.025711535     0.014376283  0.016467878  0.171250805

  length of vectors
     5.256784151  4.826881848  6.644820751     0.221505154  0.213812783  0.172640397


 FORCES acting on ions
    electron-ion (+dipol)            ewald-force                    non-local-force                 convergence-correction
 -----------------------------------------------------------------------------------------------
   0.138E+03 0.166E+03 -.119E+03   -.173E+03 -.208E+03 0.148E+03   0.264E+02 0.322E+02 -.220E+02   0.514E-03 0.233E-03 0.391E-04
   -.160E+03 -.192E+03 0.137E+03   0.173E+03 0.208E+03 -.148E+03   -.467E+01 -.586E+01 0.374E+01   -.826E-04 -.152E-03 0.347E-03
 -----------------------------------------------------------------------------------------------
   -.218E+02 -.263E+02 0.183E+02   0.000E+00 0.000E+00 0.000E+00   0.218E+02 0.263E+02 -.183E+02   0.431E-03 0.811E-04 0.386E-03
 
 
 POSITION                                       TOTAL-FORCE (eV/Angst)
 -----------------------------------------------------------------------------------
     -0.04189      2.74777      3.26573        -8.802651    -10.620056      7.380891
      0.54200      3.45484      2.77351         8.802651     10.620056     -7.380891
 -----------------------------------------------------------------------------------
    total drift:                               -0.001362     -0.001886      0.001542


--------------------------------------------------------------------------------------------------------



  FREE ENERGIE OF THE ION-ELECTRON SYSTEM (eV)
  ---------------------------------------------------
  free  energy   TOTEN  =       -14.33166024 eV

  energy  without entropy=      -14.33166024  energy(sigma->0) =      -14.33166024
 


--------------------------------------------------------------------------------------------------------


    POTLOK:  cpu time    0.0390: real time    0.0397


--------------------------------------------------------------------------------------------------------


 stress matrix after NEB project (eV)
      4.72211      6.23150     -4.31917
      6.23150      7.09237     -5.21278
     -4.31917     -5.21278      3.38248
  FORCES: max atom, RMS    15.644481   15.644481
  FORCE total and by dimension   22.124637   10.620056
  Stress total and by dimension   15.917315    7.092368


--------------------------------------------------------------------------------------------------------


    WAVPRE:  cpu time    1.0328: real time    1.0863
    FEWALD:  cpu time    0.0000: real time    0.0001
    GENKIN:  cpu time    0.0000: real time    0.0005

 real space projection operators:
  total allocation   :       1555.40 KBytes
  max/ min on nodes  :        392.25        384.95

    ORTHCH:  cpu time    0.0020: real time    0.0023
     LOOP+:  cpu time    1.9177: real time    1.9772


--------------------------------------- Iteration      2(   1)  ---------------------------------------


    POTLOK:  cpu time    0.0340: real time    0.0355
    SETDIJ:  cpu time    0.0060: real time    0.0061
     EDDAV:  cpu time    0.0140: real time    0.0139
       DOS:  cpu time    0.0000: real time    0.0001
    CHARGE:  cpu time    0.0030: real time    0.0033
    MIXING:  cpu time    0.0010: real time    0.0007
    --------------------------------------------
      LOOP:  cpu time    0.0580: real time    0.0595

 eigenvalue-minimisations  :    48
 total energy-change (2. order) : 0.2251178E+02  (-0.2196407E+03)
 number of electron       9.9999998 magnetization      -0.0000000
 augmentation part        0.1146167 magnetization      -0.0000512

 Broyden mixing:
  rms(total) = 0.34000E+01    rms(broyden)= 0.33991E+01
  rms(prec ) = 0.45350E+01
  weight for this iteration     100.00

 Free energy of the ion-electron system (eV)
  ---------------------------------------------------
  alpha Z        PSCENC =         0.78371644
  Ewald energy   TEWEN  =      -216.21122373
  -Hartree energ DENC   =      -325.83947063
  -exchange      EXHF   =         0.00000000
  -V(xc)+E(xc)   XCENC  =        35.18811449
  PAW double counting   =      1219.85313382    -1213.95198672
  entropy T*S    EENTRO =        -0.00000000
  eigenvalues    EBANDS =       -71.12942118
  atomic energy  EATOM  =       579.50312721
  Solvation  Ediel_sol  =         0.00000000
  ---------------------------------------------------
  free energy    TOTEN  =         8.19598970 eV

  energy without entropy =        8.19598970  energy(sigma->0) =        8.19598970


--------------------------------------------------------------------------------------------------------




--------------------------------------- Iteration      2(   2)  ---------------------------------------


    POTLOK:  cpu time    0.0330: real time    0.0330
    SETDIJ:  cpu time    0.0050: real time    0.0056
    EDDIAG:  cpu time    0.0030: real time    0.0027
  RMM-DIIS:  cpu time    0.0130: real time    0.0133
    ORTHCH:  cpu time    0.0010: real time    0.0004
       DOS:  cpu time    0.0000: real time    0.0001
    CHARGE:  cpu time    0.0030: real time    0.0033
    MIXING:  cpu time    0.0010: real time    0.0007
    --------------------------------------------
      LOOP:  cpu time    0.0590: real time    0.0591

 eigenvalue-minimisations  :    56
 total energy-change (2. order) :-0.1384721E+02  (-0.3041631E+02)
 number of electron       9.9999996 magnetization      -0.0000000
 augmentation part        0.6898163 magnetization      -0.0001249

 Broyden mixing:
  rms(total) = 0.25763E+01    rms(broyden)= 0.25757E+01
  rms(prec ) = 0.35377E+01
  weight for this iteration     100.00

 eigenvalues of (default mixing * dielectric matrix)
  average eigenvalue GAMMA=   0.6153
  0.6153

 Free energy of the ion-electron system (eV)
  ---------------------------------------------------
  alpha Z        PSCENC =         0.78371644
  Ewald energy   TEWEN  =      -216.21122373
  -Hartree energ DENC   =      -270.10010723
  -exchange      EXHF   =         0.00000000
  -V(xc)+E(xc)   XCENC  =        29.54850977
  PAW double counting   =      1062.09578093    -1056.22194531
  entropy T*S    EENTRO =        -0.00000000
  eigenvalues    EBANDS =      -135.04907922
  atomic energy  EATOM  =       579.50312721
  Solvation  Ediel_sol  =         0.00000000
  ---------------------------------------------------
  free energy    TOTEN  =        -5.65122113 eV

  energy without entropy =       -5.65122113  energy(sigma->0) =       -5.65122113


--------------------------------------------------------------------------------------------------------




--------------------------------------- Iteration      2(   3)  ---------------------------------------


    POTLOK:  cpu time    0.0330: real time    0.0330
    SETDIJ:  cpu time    0.0060: real time    0.0056
    EDDIAG:  cpu time    0.0020: real time    0.0027
  RMM-DIIS:  cpu time    0.0100: real time    0.0098
    ORTHCH:  cpu time    0.0000: real time    0.0004
       DOS:  cpu time    0.0000: real time    0.0001
    CHARGE:  cpu time    0.0040: real time    0.0038
    MIXING:  cpu time    0.0010: real time    0.0008
    --------------------------------------------
      LOOP:  cpu time    0.0560: real time    0.0561

 eigenvalue-minimisations  :    48
 total energy-change (2. order) : 0.5481339E+01  (-0.1159075E+01)
 number of electron       9.9999998 magnetization      -0.0072968
 augmentation part        0.3635025 magnetization       0.0081218

 Broyden mixing:
  rms(total) = 0.19324E+01    rms(broyden)= 0.19306E+01
  rms(prec ) = 0.25596E+01
  weight for this iteration     100.00

 eigenvalues of (default mixing * dielectric matrix)
  average eigenvalue GAMMA=   0.5913
  0.5913  0.5913

 Free energy of the ion-electron system (eV)
  ---------------------------------------------------
  alpha Z        PSCENC =         0.78371644
  Ewald energy   TEWEN  =      -216.21122373
  -Hartree energ DENC   =      -285.01142292
  -exchange      EXHF   =         0.00000000
  -V(xc)+E(xc)   XCENC  =        29.72529991
  PAW double counting   =       909.13069741     -903.25470617
  entropy T*S    EENTRO =        -0.04781668
  eigenvalues    EBANDS =      -114.78755331
  atomic energy  EATOM  =       579.50312721
  Solvation  Ediel_sol  =         0.00000000
  ---------------------------------------------------
  free energy    TOTEN  =        -0.16988182 eV

  energy without entropy =       -0.12206514  energy(sigma->0) =       -0.14597348


--------------------------------------------------------------------------------------------------------




--------------------------------------- Iteration      2(   4)  ---------------------------------------


    POTLOK:  cpu time    0.0330: real time    0.0332
    SETDIJ:  cpu time    0.0060: real time    0.0058
    EDDIAG:  cpu time    0.0030: real time    0.0027
  RMM-DIIS:  cpu time    0.0090: real time    0.0097
    ORTHCH:  cpu time    0.0010: real time    0.0004
       DOS:  cpu time    0.0000: real time    0.0001
    CHARGE:  cpu time    0.0030: real time    0.0033
    MIXING:  cpu time    0.0010: real time    0.0010
    --------------------------------------------
      LOOP:  cpu time    0.0560: real time    0.0560

 eigenvalue-minimisations  :    48
 total energy-change (2. order) :-0.3844469E+01  (-0.2132952E+00)
 number of electron       9.9999995 magnetization      -0.0135138
 augmentation part        0.7550150 magnetization      -0.0135109

 Broyden mixing:
  rms(total) = 0.21441E+01    rms(broyden)= 0.21433E+01
  rms(prec ) = 0.38443E+01
  weight for this iteration     100.00

 eigenvalues of (default mixing * dielectric matrix)
  average eigenvalue GAMMA=   1.0449
  1.6531  1.2465  0.2349

 Free energy of the ion-electron system (eV)
  ---------------------------------------------------
  alpha Z        PSCENC =         0.78371644
  Ewald energy   TEWEN  =      -216.21122373
  -Hartree energ DENC   =      -279.58518702
  -exchange      EXHF   =         0.00000000
  -V(xc)+E(xc)   XCENC  =        29.24133534
  PAW double counting   =       797.26740433     -791.34978662
  entropy T*S    EENTRO =        -0.00000000
  eigenvalues    EBANDS =      -123.66373685
  atomic energy  EATOM  =       579.50312721
  Solvation  Ediel_sol  =         0.00000000
  ---------------------------------------------------
  free energy    TOTEN  =        -4.01435090 eV

  energy without entropy =       -4.01435090  energy(sigma->0) =       -4.01435090


--------------------------------------------------------------------------------------------------------




--------------------------------------- Iteration      2(   5)  ---------------------------------------


    POTLOK:  cpu time    0.0330: real time    0.0332
    SETDIJ:  cpu time    0.0060: real time    0.0056
    EDDIAG:  cpu time    0.0030: real time    0.0027
  RMM-DIIS:  cpu time    0.0090: real time    0.0098
    ORTHCH:  cpu time    0.0010: real time    0.0004
       DOS:  cpu time    0.0000: real time    0.0001
    CHARGE:  cpu time    0.0030: real time    0.0033
    MIXING:  cpu time    0.0010: real time    0.0009
    --------------------------------------------
      LOOP:  cpu time    0.0560: real time    0.0559

 eigenvalue-minimisations  :    48
 total energy-change (2. order) :-0.1132171E+02  (-0.2752009E+00)
 number of electron      10.0000003 magnetization      -0.0035430
 augmentation part       -0.0403508 magnetization      -0.0035985

 Broyden mixing:
  rms(total) = 0.34542E+01    rms(broyden)= 0.34530E+01
  rms(prec ) = 0.80482E+01
  weight for this iteration     100.00

 eigenvalues of (default mixing * dielectric matrix)
  average eigenvalue GAMMA=   0.9383
  2.0483  1.1156  0.4145  0.1747

 Free energy of the ion-electron system (eV)
  ---------------------------------------------------
  alpha Z        PSCENC =         0.78371644
  Ewald energy   TEWEN  =      -216.21122373
  -Hartree energ DENC   =      -309.11841583
  -exchange      EXHF   =         0.00000000
  -V(xc)+E(xc)   XCENC  =        30.23685090
  PAW double counting   =       592.89284989     -586.72006143
  entropy T*S    EENTRO =        -0.00000000
  eigenvalues    EBANDS =      -106.70290509
  atomic energy  EATOM  =       579.50312721
  Solvation  Ediel_sol  =         0.00000000
  ---------------------------------------------------
  free energy    TOTEN  =       -15.33606164 eV

  energy without entropy =      -15.33606164  energy(sigma->0) =      -15.33606164


--------------------------------------------------------------------------------------------------------




--------------------------------------- Iteration      2(   6)  ---------------------------------------


    POTLOK:  cpu time    0.0330: real time    0.0333
    SETDIJ:  cpu time    0.0060: real time    0.0056
    EDDIAG:  cpu time    0.0030: real time    0.0027
  RMM-DIIS:  cpu time    0.0090: real time    0.0097
    ORTHCH:  cpu time    0.0010: real time    0.0004
       DOS:  cpu time    0.0000: real time    0.0001
    CHARGE:  cpu time    0.0030: real time    0.0033
    MIXING:  cpu time    0.0010: real time    0.0009
    --------------------------------------------
      LOOP:  cpu time    0.0560: real time    0.0559

 eigenvalue-minimisations  :    48
 total energy-change (2. order) : 0.7272383E+01  (-0.3767014E-01)
 number of electron      10.0000003 magnetization       0.0028195
 augmentation part       -0.0503286 magnetization       0.0028247

 Broyden mixing:
  rms(total) = 0.33101E+01    rms(broyden)= 0.33100E+01
  rms(prec ) = 0.77506E+01
  weight for this iteration     100.00

 eigenvalues of (default mixing * dielectric matrix)
  average eigenvalue GAMMA=   1.0699
  2.4240  1.0169  0.8541  0.8541  0.2003

 Free energy of the ion-electron system (eV)
  ---------------------------------------------------
  alpha Z        PSCENC =         0.78371644
  Ewald energy   TEWEN  =      -216.21122373
  -Hartree energ DENC   =      -307.08505765
  -exchange      EXHF   =         0.00000000
  -V(xc)+E(xc)   XCENC  =        30.16537976
  PAW double counting   =       557.62470210     -551.45403346
  entropy T*S    EENTRO =        -0.00000000
  eigenvalues    EBANDS =      -101.39028979
  atomic energy  EATOM  =       579.50312721
  Solvation  Ediel_sol  =         0.00000000
  ---------------------------------------------------
[...]
  alpha Z        PSCENC =         0.78371644
  Ewald energy   TEWEN  =      -216.21122373
  -Hartree energ DENC   =      -299.89242337
  -exchange      EXHF   =         0.00000000
  -V(xc)+E(xc)   XCENC  =        29.76443601
  PAW double counting   =       466.41183942     -460.23096398
  entropy T*S    EENTRO =        -0.00000012
  eigenvalues    EBANDS =      -101.92820366
  atomic energy  EATOM  =       579.50312721
  Solvation  Ediel_sol  =         0.00000000
  ---------------------------------------------------
  free energy    TOTEN  =        -1.79969578 eV

  energy without entropy =       -1.79969566  energy(sigma->0) =       -1.79969572


--------------------------------------------------------------------------------------------------------




--------------------------------------- Iteration      2(  15)  ---------------------------------------


    POTLOK:  cpu time    0.0330: real time    0.0337
    SETDIJ:  cpu time    0.0050: real time    0.0056
    EDDIAG:  cpu time    0.0030: real time    0.0027
  RMM-DIIS:  cpu time    0.0110: real time    0.0097
    ORTHCH:  cpu time    0.0000: real time    0.0004
       DOS:  cpu time    0.0000: real time    0.0001
    CHARGE:  cpu time    0.0040: real time    0.0038
    MIXING:  cpu time    0.0010: real time    0.0014
    --------------------------------------------
      LOOP:  cpu time    0.0570: real time    0.0572

 eigenvalue-minimisations  :    48
 total energy-change (2. order) : 0.2000123E+00  (-0.3576983E-03)
 number of electron      10.0000000 magnetization      -0.0009076
 augmentation part        0.0393929 magnetization       0.0353592

 Broyden mixing:
  rms(total) = 0.25921E+01    rms(broyden)= 0.25921E+01
  rms(prec ) = 0.59149E+01
  weight for this iteration     100.00

 eigenvalues of (default mixing * dielectric matrix)
  average eigenvalue GAMMA=   0.7957
  2.5903  1.7491  0.7021  0.7021  1.0880  1.0413  0.6009  0.6009  0.5996  0.2019
  0.3894  0.3392  0.3392  0.1964

 Free energy of the ion-electron system (eV)
  ---------------------------------------------------
  alpha Z        PSCENC =         0.78371644
  Ewald energy   TEWEN  =      -216.21122373
  -Hartree energ DENC   =      -299.78285744
  -exchange      EXHF   =         0.00000000
  -V(xc)+E(xc)   XCENC  =        29.80228704
  PAW double counting   =       466.17240306     -459.99193418
  entropy T*S    EENTRO =        -0.00000063
  eigenvalues    EBANDS =      -101.87520128
  atomic energy  EATOM  =       579.50312721
  Solvation  Ediel_sol  =         0.00000000
  ---------------------------------------------------
  free energy    TOTEN  =        -1.59968352 eV

  energy without entropy =       -1.59968288  energy(sigma->0) =       -1.59968320


--------------------------------------------------------------------------------------------------------




--------------------------------------- Iteration      2(  16)  ---------------------------------------


    POTLOK:  cpu time    0.0330: real time    0.0336
    SETDIJ:  cpu time    0.0060: real time    0.0056
    EDDIAG:  cpu time    0.0020: real time    0.0027
  RMM-DIIS:  cpu time    0.0100: real time    0.0097
    ORTHCH:  cpu time    0.0000: real time    0.0003
       DOS:  cpu time    0.0000: real time    0.0001
    CHARGE:  cpu time    0.0040: real time    0.0038
    MIXING:  cpu time    0.0020: real time    0.0015
    --------------------------------------------
      LOOP:  cpu time    0.0570: real time    0.0573

 eigenvalue-minimisations  :    48
 total energy-change (2. order) : 0.4441028E-01  (-0.5391401E-04)
 number of electron      10.0000000 magnetization      -0.0008066
 augmentation part        0.0400898 magnetization       0.0366753

 Broyden mixing:
  rms(total) = 0.25877E+01    rms(broyden)= 0.25877E+01
  rms(prec ) = 0.59041E+01
  weight for this iteration     100.00

 eigenvalues of (default mixing * dielectric matrix)
  average eigenvalue GAMMA=   0.7432
  2.5927  1.7964  0.6983  0.6983  1.0884  1.0207  0.6039  0.6039  0.5735  0.2019
  0.3582  0.3160  0.3160  0.2029  0.0771

 Free energy of the ion-electron system (eV)
  ---------------------------------------------------
  alpha Z        PSCENC =         0.78371644
  Ewald energy   TEWEN  =      -216.21122373
  -Hartree energ DENC   =      -299.78363381
  -exchange      EXHF   =         0.00000000
  -V(xc)+E(xc)   XCENC  =        29.81625250
  PAW double counting   =       466.25179035     -460.07158869
  entropy T*S    EENTRO =        -0.00000081
  eigenvalues    EBANDS =      -101.84371269
  atomic energy  EATOM  =       579.50312721
  Solvation  Ediel_sol  =         0.00000000
  ---------------------------------------------------
  free energy    TOTEN  =        -1.55527324 eV

  energy without entropy =       -1.55527243  energy(sigma->0) =       -1.55527283


--------------------------------------------------------------------------------------------------------




--------------------------------------- Iteration      2(  17)  ---------------------------------------


    POTLOK:  cpu time    0.0330: real time    0.0337
    SETDIJ:  cpu time    0.0060: real time    0.0056
    EDDIAG:  cpu time    0.0030: real time    0.0029
  RMM-DIIS:  cpu time    0.0090: real time    0.0096
    ORTHCH:  cpu time    0.0010: real time    0.0004
       DOS:  cpu time    0.0000: real time    0.0001
    CHARGE:  cpu time    0.0040: real time    0.0038
    MIXING:  cpu time    0.0010: real time    0.0015
    --------------------------------------------
      LOOP:  cpu time    0.0570: real time    0.0575

 eigenvalue-minimisations  :    48
 total energy-change (2. order) : 0.4444400E+00  (-0.2948356E-03)
 number of electron       9.9999999 magnetization      -0.0008070
 augmentation part        0.0791944 magnetization       0.0444019

 Broyden mixing:
  rms(total) = 0.23558E+01    rms(broyden)= 0.23558E+01
  rms(prec ) = 0.52880E+01
  weight for this iteration     100.00

 eigenvalues of (default mixing * dielectric matrix)
  average eigenvalue GAMMA=   0.6968
  2.5926  1.7944  0.6983  0.6983  1.0897  1.0204  0.6043  0.6043  0.5737  0.2019
  0.3612  0.3165  0.3165  0.2030  0.0050  0.0691

 Free energy of the ion-electron system (eV)
  ---------------------------------------------------
  alpha Z        PSCENC =         0.78371644
  Ewald energy   TEWEN  =      -216.21122373
  -Hartree energ DENC   =      -299.41848212
  -exchange      EXHF   =         0.00000000
  -V(xc)+E(xc)   XCENC  =        29.80026475
  PAW double counting   =       466.48487835     -460.30442778
  entropy T*S    EENTRO =        -0.00035504
  eigenvalues    EBANDS =      -101.74833127
  atomic energy  EATOM  =       579.50312721
  Solvation  Ediel_sol  =         0.00000000
  ---------------------------------------------------
  free energy    TOTEN  =        -1.11083320 eV

  energy without entropy =       -1.11047816  energy(sigma->0) =       -1.11065568


--------------------------------------------------------------------------------------------------------




--------------------------------------- Iteration      2(  18)  ---------------------------------------


    POTLOK:  cpu time    0.0340: real time    0.0337
    SETDIJ:  cpu time    0.0050: real time    0.0056
    EDDIAG:  cpu time    0.0030: real time    0.0027
  RMM-DIIS:  cpu time    0.0100: real time    0.0098
    ORTHCH:  cpu time    0.0000: real time    0.0003
       DOS:  cpu time    0.0000: real time    0.0001
    CHARGE:  cpu time    0.0040: real time    0.0038
    MIXING:  cpu time    0.0020: real time    0.0016
    --------------------------------------------
      LOOP:  cpu time    0.0580: real time    0.0576

 eigenvalue-minimisations  :    48
 total energy-change (2. order) : 0.1772997E-01  (-0.4834397E-04)
 number of electron       9.9999999 magnetization      -0.0004441
 augmentation part        0.0785723 magnetization       0.0444560

 Broyden mixing:
  rms(total) = 0.23573E+01    rms(broyden)= 0.23573E+01
  rms(prec ) = 0.52946E+01
  weight for this iteration     100.00

 eigenvalues of (default mixing * dielectric matrix)
  average eigenvalue GAMMA=   0.6714
  2.5908  1.7661  1.0937  1.0279  0.6992  0.6992  0.6015  0.6015  0.5939  0.3574
  0.3574  0.2019  0.2343  0.2343  0.2023  0.0761  0.0761

 Free energy of the ion-electron system (eV)
  ---------------------------------------------------
  alpha Z        PSCENC =         0.78371644
  Ewald energy   TEWEN  =      -216.21122373
  -Hartree energ DENC   =      -299.42294523
  -exchange      EXHF   =         0.00000000
  -V(xc)+E(xc)   XCENC  =        29.80960578
  PAW double counting   =       466.50129795     -460.32081025
  entropy T*S    EENTRO =        -0.00033974
  eigenvalues    EBANDS =      -101.73553166
  atomic energy  EATOM  =       579.50312721
  Solvation  Ediel_sol  =         0.00000000
  ---------------------------------------------------
  free energy    TOTEN  =        -1.09310323 eV

  energy without entropy =       -1.09276350  energy(sigma->0) =       -1.09293336


--------------------------------------------------------------------------------------------------------




--------------------------------------- Iteration      2(  19)  ---------------------------------------


    POTLOK:  cpu time    0.0330: real time    0.0337
    SETDIJ:  cpu time    0.0060: real time    0.0056
    EDDIAG:  cpu time    0.0030: real time    0.0027
  RMM-DIIS:  cpu time    0.0090: real time    0.0097
    ORTHCH:  cpu time    0.0010: real time    0.0004
       DOS:  cpu time    0.0000: real time    0.0001
    CHARGE:  cpu time    0.0040: real time    0.0038
    MIXING:  cpu time    0.0010: real time    0.0016
    --------------------------------------------
      LOOP:  cpu time    0.0570: real time    0.0576

 eigenvalue-minimisations  :    48
 total energy-change (2. order) : 0.1919384E+00  (-0.1482412E-03)
 number of electron       9.9999998 magnetization      -0.0003657
 augmentation part        0.1053461 magnetization       0.0489354

 Broyden mixing:
  rms(total) = 0.21906E+01    rms(broyden)= 0.21905E+01
  rms(prec ) = 0.48799E+01
  weight for this iteration     100.00

 eigenvalues of (default mixing * dielectric matrix)
  average eigenvalue GAMMA=   0.6453
  2.5905  1.7679  1.0906  1.0296  0.7000  0.7000  0.5976  0.5976  0.5952  0.3826
  0.3826  0.2019  0.2671  0.2671  0.1978  0.0853  0.0853  0.0768

 Free energy of the ion-electron system (eV)
  ---------------------------------------------------
  alpha Z        PSCENC =         0.78371644
  Ewald energy   TEWEN  =      -216.21122373
  -Hartree energ DENC   =      -298.89688029
  -exchange      EXHF   =         0.00000000
  -V(xc)+E(xc)   XCENC  =        29.76714359
  PAW double counting   =       466.89576861     -460.71406104
  entropy T*S    EENTRO =        -0.00197926
  eigenvalues    EBANDS =      -102.02677636
  atomic energy  EATOM  =       579.50312721
  Solvation  Ediel_sol  =         0.00000000
  ---------------------------------------------------
  free energy    TOTEN  =        -0.90116482 eV

  energy without entropy =       -0.89918556  energy(sigma->0) =       -0.90017519


--------------------------------------------------------------------------------------------------------




--------------------------------------- Iteration      2(  20)  ---------------------------------------


    POTLOK:  cpu time    0.0340: real time    0.0336
    SETDIJ:  cpu time    0.0060: real time    0.0056
    EDDIAG:  cpu time    0.0020: real time    0.0027
  RMM-DIIS:  cpu time    0.0120: real time    0.0114
    ORTHCH:  cpu time    0.0000: real time    0.0004
       DOS:  cpu time    0.0000: real time    0.0001
    CHARGE:  cpu time    0.0040: real time    0.0038
    MIXING:  cpu time    0.0020: real time    0.0017
    --------------------------------------------
      LOOP:  cpu time    0.0600: real time    0.0593

 eigenvalue-minimisations  :    50
 total energy-change (2. order) : 0.2329334E+00  (-0.3083557E-03)
 number of electron       9.9999996 magnetization       0.0025514
 augmentation part        0.1930495 magnetization       0.0494571

 Broyden mixing:
  rms(total) = 0.16955E+01    rms(broyden)= 0.16947E+01
  rms(prec ) = 0.35793E+01
  weight for this iteration     100.00

 eigenvalues of (default mixing * dielectric matrix)
  average eigenvalue GAMMA=   0.6309
  2.5886  1.7479  1.0880  1.0400  0.7028  0.7028  0.5976  0.5976  0.6138  0.4130
  0.4130  0.2019  0.3063  0.3063  0.2083  0.1358  0.1358  0.0939  0.0939

 Free energy of the ion-electron system (eV)
  ---------------------------------------------------
  alpha Z        PSCENC =         0.78371644
  Ewald energy   TEWEN  =      -216.21122373
  -Hartree energ DENC   =      -298.56757183
  -exchange      EXHF   =         0.00000000
  -V(xc)+E(xc)   XCENC  =        29.74320977
  PAW double counting   =       466.68320463     -460.50292776
  entropy T*S    EENTRO =        -0.01092180
  eigenvalues    EBANDS =      -102.08884438
  atomic energy  EATOM  =       579.50312721
  Solvation  Ediel_sol  =         0.00000000
  ---------------------------------------------------
  free energy    TOTEN  =        -0.66823146 eV

  energy without entropy =       -0.65730966  energy(sigma->0) =       -0.66277056


--------------------------------------------------------------------------------------------------------




--------------------------------------- Iteration      2(  21)  ---------------------------------------


    POTLOK:  cpu time    0.0330: real time    0.0337
    SETDIJ:  cpu time    0.0060: real time    0.0056
    EDDIAG:  cpu time    0.0030: real time    0.0027
  RMM-DIIS:  cpu time    0.0090: real time    0.0096
    ORTHCH:  cpu time    0.0000: real time    0.0004
       DOS:  cpu time    0.0010: real time    0.0001
    CHARGE:  cpu time    0.0030: real time    0.0038
    MIXING:  cpu time    0.0020: real time    0.0019
    --------------------------------------------
      LOOP:  cpu time    0.0570: real time    0.0577

 eigenvalue-minimisations  :    48
 total energy-change (2. order) :-0.1184913E+00  (-0.2034790E-03)
 number of electron       9.9999997 magnetization       0.0033064
 augmentation part        0.1648682 magnetization       0.0286776

 Broyden mixing:
  rms(total) = 0.18551E+01    rms(broyden)= 0.18551E+01
  rms(prec ) = 0.39957E+01
  weight for this iteration     100.00

 eigenvalues of (default mixing * dielectric matrix)
  average eigenvalue GAMMA=   0.6012
  2.5886  1.7480  1.0853  1.0425  0.7032  0.7032  0.5974  0.5974  0.6153  0.4117
  0.4117  0.2019  0.3002  0.3002  0.2087  0.1331  0.1331  0.1008  0.1008  0.0414

 Free energy of the ion-electron system (eV)
  ---------------------------------------------------
  alpha Z        PSCENC =         0.78371644
  Ewald energy   TEWEN  =      -216.21122373
  -Hartree energ DENC   =      -298.71674536
  -exchange      EXHF   =         0.00000000
  -V(xc)+E(xc)   XCENC  =        29.73101905
  PAW double counting   =       466.68283868     -460.50381638
  entropy T*S    EENTRO =        -0.00750601
  eigenvalues    EBANDS =      -102.04813267
  atomic energy  EATOM  =       579.50312721
  Solvation  Ediel_sol  =         0.00000000
  ---------------------------------------------------
  free energy    TOTEN  =        -0.78672277 eV

  energy without entropy =       -0.77921676  energy(sigma->0) =       -0.78296977


--------------------------------------------------------------------------------------------------------




--------------------------------------- Iteration      2(  22)  ---------------------------------------


    POTLOK:  cpu time    0.0340: real time    0.0337
    SETDIJ:  cpu time    0.0060: real time    0.0056
    EDDIAG:  cpu time    0.0020: real time    0.0027
  RMM-DIIS:  cpu time    0.0110: real time    0.0105
    ORTHCH:  cpu time    0.0000: real time    0.0004
       DOS:  cpu time    0.0000: real time    0.0001
    CHARGE:  cpu time    0.0040: real time    0.0038
    MIXING:  cpu time    0.0020: real time    0.0019
    --------------------------------------------
      LOOP:  cpu time    0.0590: real time    0.0586

 eigenvalue-minimisations  :    49
 total energy-change (2. order) : 0.4741042E-01  (-0.1868122E-04)
 number of electron       9.9999997 magnetization       0.0023053
 augmentation part        0.1796906 magnetization       0.0118682

 Broyden mixing:
  rms(total) = 0.17715E+01    rms(broyden)= 0.17714E+01
  rms(prec ) = 0.37778E+01
  weight for this iteration     100.00

 eigenvalues of (default mixing * dielectric matrix)
  average eigenvalue GAMMA=   0.6268
  2.5865  1.7235  1.0903  1.0903  0.7425  0.7425  0.7484  0.6517  0.6517  0.4398
  0.4398  0.3681  0.3681  0.2019  0.2992  0.2992  0.2461  0.2218  0.0952  0.0952
  0.0619

 Free energy of the ion-electron system (eV)
  ---------------------------------------------------
  alpha Z        PSCENC =         0.78371644
  Ewald energy   TEWEN  =      -216.21122373
  -Hartree energ DENC   =      -298.67327906
  -exchange      EXHF   =         0.00000000
  -V(xc)+E(xc)   XCENC  =        29.73756237
  PAW double counting   =       466.69077381     -460.51191103
  entropy T*S    EENTRO =        -0.00937584
  eigenvalues    EBANDS =      -102.04870253
  atomic energy  EATOM  =       579.50312721
  Solvation  Ediel_sol  =         0.00000000
  ---------------------------------------------------
  free energy    TOTEN  =        -0.73931235 eV

  energy without entropy =       -0.72993651  energy(sigma->0) =       -0.73462443


--------------------------------------------------------------------------------------------------------




--------------------------------------- Iteration      2(  23)  ---------------------------------------


    POTLOK:  cpu time    0.0340: real time    0.0337
    SETDIJ:  cpu time    0.0050: real time    0.0056
    EDDIAG:  cpu time    0.0030: real time    0.0027
  RMM-DIIS:  cpu time    0.0110: real time    0.0113
    ORTHCH:  cpu time    0.0010: real time    0.0004
       DOS:  cpu time    0.0000: real time    0.0001
    CHARGE:  cpu time    0.0040: real time    0.0038
    MIXING:  cpu time    0.0020: real time    0.0020
    --------------------------------------------
      LOOP:  cpu time    0.0600: real time    0.0596

 eigenvalue-minimisations  :    51
 total energy-change (2. order) : 0.1809480E+00  (-0.5065510E-03)
 number of electron       9.9999996 magnetization       0.0005002
 augmentation part        0.3959558 magnetization       0.0688937

 Broyden mixing:
  rms(total) = 0.68338E+00    rms(broyden)= 0.67732E+00
  rms(prec ) = 0.86862E+00
  weight for this iteration     100.00

 eigenvalues of (default mixing * dielectric matrix)
  average eigenvalue GAMMA=   0.5981
  2.5827  1.6905  1.0991  1.0991  0.7413  0.7413  0.7396  0.6528  0.6528  0.4395
  0.4395  0.3737  0.3737  0.3101  0.3101  0.2019  0.2465  0.1924  0.0951  0.0951
  0.0629  0.0182

 Free energy of the ion-electron system (eV)
  ---------------------------------------------------
  alpha Z        PSCENC =         0.78371644
  Ewald energy   TEWEN  =      -216.21122373
  -Hartree energ DENC   =      -298.55204887
  -exchange      EXHF   =         0.00000000
  -V(xc)+E(xc)   XCENC  =        29.74414977
  PAW double counting   =       466.63130498     -460.45782457
  entropy T*S    EENTRO =        -0.02123481
  eigenvalues    EBANDS =      -101.97833076
  atomic energy  EATOM  =       579.50312721
  Solvation  Ediel_sol  =         0.00000000
  ---------------------------------------------------
  free energy    TOTEN  =        -0.55836436 eV

  energy without entropy =       -0.53712954  energy(sigma->0) =       -0.54774695


--------------------------------------------------------------------------------------------------------




--------------------------------------- Iteration      2(  24)  ---------------------------------------


    POTLOK:  cpu time    0.0330: real time    0.0336
    SETDIJ:  cpu time    0.0060: real time    0.0056
