 vasp.5.4.4.18Apr17-6-g9f103f2a35 (build May 21 2019 18:55:53) complex          
  
 executed on           IFC19_impi date 2025.07.24  09:09:20
 running on   24 total cores
 distrk:  each k-point on   24 cores,    1 groups
 distr:  one band on NCORES_PER_BAND=   4 cores,    6 groups


--------------------------------------------------------------------------------------------------------


 INCAR:
 POTCAR:    PAW_PBE O_GW_new 19Mar2012            
 POTCAR:    PAW_PBE C_GW_new 19Mar2012            
 POTCAR:    PAW_PBE O_GW_new 19Mar2012            
   SHA256 =  c493eb4e480bc193c6922e0b8c73e7a108f48fca6e73afddd92a880a1c2b3374 O_
   COPYR  = (c) Copyright 19Mar2012 Georg Kresse                                
   COPYR  = This file is part of the software VASP. Any use, copying, and all ot
   COPYR  = If you do not have a valid VASP license, you may not use, copy or di
   VRHFIN =O: s2p4                                                              
   LEXCH  = PE                                                                  
   EATOM  =   432.3788 eV,   31.7789 Ry                                         
                                                                                
   TITEL  = PAW_PBE O_GW_new 19Mar2012                                          
   LULTRA =        F    use ultrasoft PP ?                                      
   IUNSCR =        1    unscreen: 0-lin 1-nonlin 2-no                           
   RPACOR =    0.800    partial core radius                                     
   POMASS =   16.000; ZVAL   =    6.000    mass and valenz                      
   RCORE  =    1.600    outmost cutoff radius                                   
   RWIGS  =    1.600; RWIGS  =    0.847    wigner-seitz radius (au A)           
   ENMAX  =  434.431; ENMIN  =  325.824 eV                                      
   ICORE  =        3    local potential                                         
   LCOR   =        T    correct aug charges                                     
   LPAW   =        T    paw PP                                                  
   EAUG   = 1139.609                                                            
   DEXC   =    0.000                                                            
   RMAX   =    1.629    core radius for proj-oper                               
   RAUG   =    1.300    factor for augmentation sphere                          
   RDEP   =    1.652    radius for radial grids                                 
   RDEPT  =    1.200    core radius for aug-charge                              
                                                                                
   Atomic configuration                                                         
    5 entries                                                                   
     n  l   j            E        occ.                                          
     1  0  0.50      -514.6923   2.0000                                         
     2  0  0.50       -23.9615   2.0000                                         
     2  1  0.50        -9.0305   4.0000                                         
     3  2  1.50        -9.5241   0.0000                                         
     4  3  2.50        -9.5241   0.0000                                         
   Description                                                                  
     l       E           TYP  RCUT    TYP  RCUT                                 
     0    -23.9615316     23  1.150                                             
     0    -25.3221142     23  1.150                                             
     0    244.9048680     23  1.300                                             
     1     -9.0304908     23  1.500                                             
     1     -6.9258396     23  1.500                                             
     1    122.4524340     23  1.500                                             
     2     13.6058260     23  1.500                                             
     2    190.4815640     23  1.600                                             
     3     54.4233040     23  1.400                                             
  local pseudopotential read in
  partial core-charges read in
  partial kinetic energy density read in
  kinetic energy density of atom read in
  atomic valenz-charges read in
  non local Contribution for L=           0  read in
    real space projection operators read in
  non local Contribution for L=           0  read in
    real space projection operators read in
  non local Contribution for L=           0  read in
    real space projection operators read in
  non local Contribution for L=           1  read in
    real space projection operators read in
  non local Contribution for L=           1  read in
    real space projection operators read in
  non local Contribution for L=           1  read in
    real space projection operators read in
  non local Contribution for L=           2  read in
    real space projection operators read in
  non local Contribution for L=           2  read in
    real space projection operators read in
    PAW grid and wavefunctions read in
 
   number of l-projection  operators is LMAX  =           8
   number of lm-projection operators is LMMAX =          22
 
 POTCAR:    PAW_PBE C_GW_new 19Mar2012            
   SHA256 =  fd3f4f69ac51e962ca076bfc50bb68de54373009f6c2495f58fe5f585428a9ad C_
   COPYR  = (c) Copyright 19Mar2012 Georg Kresse                                
   COPYR  = This file is part of the software VASP. Any use, copying, and all ot
   COPYR  = If you do not have a valid VASP license, you may not use, copy or di
   VRHFIN =C: s2p2                                                              
   LEXCH  = PE                                                                  
   EATOM  =   147.1560 eV,   10.8157 Ry                                         
                                                                                
   TITEL  = PAW_PBE C_GW_new 19Mar2012                                          
   LULTRA =        F    use ultrasoft PP ?                                      
   IUNSCR =        1    unscreen: 0-lin 1-nonlin 2-no                           
   RPACOR =    0.800    partial core radius                                     
   POMASS =   12.011; ZVAL   =    4.000    mass and valenz                      
   RCORE  =    1.600    outmost cutoff radius                                   
   RWIGS  =    1.600; RWIGS  =    0.847    wigner-seitz radius (au A)           
   ENMAX  =  413.992; ENMIN  =  310.494 eV                                      
   ICORE  =        3    local potential                                         
   LCOR   =        T    correct aug charges                                     
   LPAW   =        T    paw PP                                                  
   EAUG   = 1213.930                                                            
   DEXC   =    0.000                                                            
   RMAX   =    1.630    core radius for proj-oper                               
   RAUG   =    1.300    factor for augmentation sphere                          
   RDEP   =    1.601    radius for radial grids                                 
   RDEPT  =    1.200    core radius for aug-charge                              
                                                                                
   Atomic configuration                                                         
    5 entries                                                                   
     n  l   j            E        occ.                                          
     1  0  0.50      -273.3789   2.0000                                         
     2  0  0.50       -13.7508   2.0000                                         
     2  1  0.50        -5.2854   2.0000                                         
     3  2  1.50        -5.4423   0.0000                                         
     4  3  2.50        -5.4423   0.0000                                         
   Description                                                                  
     l       E           TYP  RCUT    TYP  RCUT                                 
     0    -13.7508457     23  1.200                                             
     0     -7.5219285     23  1.200                                             
     0    272.1165200     23  1.300                                             
     1     -5.2854382     23  1.500                                             
     1    108.8466080     23  1.500                                             
     2     27.2116520     23  1.500                                             
     2    190.4815640     23  1.600                                             
     3     54.4233040     23  1.400                                             
  local pseudopotential read in
  partial core-charges read in
  partial kinetic energy density read in
  kinetic energy density of atom read in
  atomic valenz-charges read in
  non local Contribution for L=           0  read in
    real space projection operators read in
  non local Contribution for L=           0  read in
    real space projection operators read in
  non local Contribution for L=           0  read in
    real space projection operators read in
  non local Contribution for L=           1  read in
    real space projection operators read in
  non local Contribution for L=           1  read in
    real space projection operators read in
  non local Contribution for L=           2  read in
    real space projection operators read in
  non local Contribution for L=           2  read in
    real space projection operators read in
    PAW grid and wavefunctions read in
 
   number of l-projection  operators is LMAX  =           7
   number of lm-projection operators is LMMAX =          19
 

 ----------------------------------------------------------------------------- 
|                                                                             |
|  ADVICE TO THIS USER RUNNING 'VASP/VAMP'   (HEAR YOUR MASTER'S VOICE ...):  |
|                                                                             |
|      You have a (more or less) 'small supercell' and for smaller cells      |
|      it is recommended  to use the reciprocal-space projection scheme!      |
|      The real space optimization is not  efficient for small cells and it   |
|      is also less accurate ...                                              |
|      Therefore set LREAL=.FALSE. in the  INCAR file                         |
|                                                                             |
 ----------------------------------------------------------------------------- 

 Optimization of the real space projectors (new method)

 maximal supplied QI-value         = 23.62
 optimisation between [QCUT,QGAM] = [ 11.57, 23.15] = [ 37.52,150.06] Ry 
 Optimized for a Real-space Cutoff    1.53 Angstroem

   l    n(q)    QCUT    max X(q) W(low)/X(q) W(high)/X(q)  e(spline) 
   0     11    11.575   116.464    0.19E-03    0.50E-03    0.68E-05
   0     11    11.575   116.329    0.18E-03    0.48E-03    0.66E-05
   0     11    11.575     0.942    0.91E-04    0.25E-03    0.30E-05
   1     10    11.575    68.203    0.23E-03    0.52E-03    0.69E-05
   1     10    11.575    60.250    0.22E-03    0.51E-03    0.68E-05
   1     10    11.575     2.381    0.21E-03    0.47E-03    0.62E-05
   2     10    11.575     2.237    0.20E-04    0.44E-04    0.41E-06
   2     10    11.575     2.486    0.52E-04    0.84E-04    0.58E-06
 Optimization of the real space projectors (new method)

 maximal supplied QI-value         = 23.62
 optimisation between [QCUT,QGAM] = [ 11.57, 23.15] = [ 37.52,150.06] Ry 
 Optimized for a Real-space Cutoff    1.40 Angstroem

   l    n(q)    QCUT    max X(q) W(low)/X(q) W(high)/X(q)  e(spline) 
   0     10    11.575   214.472    0.12E-03    0.51E-03    0.36E-05
   0     10    11.575   163.224    0.12E-03    0.51E-03    0.36E-05
   0     10    11.575     0.672    0.22E-03    0.83E-03    0.56E-05
   1      9    11.575     2.978    0.13E-04    0.16E-04    0.12E-06
   1      9    11.575     2.423    0.91E-04    0.11E-03    0.33E-06
   2      9    11.575     2.026    0.29E-04    0.65E-04    0.23E-06
   2      9    11.575     2.119    0.11E-03    0.87E-04    0.33E-06
  PAW_PBE O_GW_new 19Mar2012            :
 energy of atom  1       EATOM= -432.3788
 kinetic energy error for atom=    0.0246 (will be added to EATOM!!)
  PAW_PBE C_GW_new 19Mar2012            :
 energy of atom  2       EATOM= -147.1560
 kinetic energy error for atom=    0.0071 (will be added to EATOM!!)
 
 
 POSCAR: C  O                                    
  positions in cartesian coordinates
  No initial velocities read in
 exchange correlation table for  LEXCH =        8
   RHO(1)=    0.500       N(1)  =     2000
   RHO(2)=  100.500       N(2)  =     4000

 VTST: version 3.2, (02/03/18)

 CHAIN: initializing optimizer
 
 OPT: Using VASP Conjugate-Gradient optimizer
 CHAIN: Read ICHAIN            0
 
 POSCAR: C  O                                    
  positions in cartesian coordinates
  No initial velocities read in
 


--------------------------------------------------------------------------------------------------------


 ion  position               nearest neighbor table
   1  0.498  0.495  0.595-   2 1.14
   2  0.591  0.599  0.548-   1 1.14
 

IMPORTANT INFORMATION: All symmetrisations will be switched off!
NOSYMM: (Re-)initialisation of all symmetry stuff for point group C_1.

 
 
 KPOINTS: mof                                     

Automatic generation of k-mesh.
Space group operators:
 irot       det(A)        alpha          n_x          n_y          n_z        tau_x        tau_y        tau_z
    1     1.000000     0.000001     1.000000     0.000000     0.000000     0.000000     0.000000     0.000000
 
 Subroutine IBZKPT returns following result:
 ===========================================
 
 Found      1 irreducible k-points:
 
 Following reciprocal coordinates:
            Coordinates               Weight
  0.000000  0.000000  0.000000      1.000000
 
 Following cartesian coordinates:
            Coordinates               Weight
  0.000000  0.000000  0.000000      1.000000
 


--------------------------------------------------------------------------------------------------------




 Dimension of arrays:
   k-points           NKPTS =      1   k-points in BZ     NKDIM =      1   number of bands    NBANDS=     12
   number of dos      NEDOS =    301   number of ions     NIONS =      2
   non local maximal  LDIM  =      8   non local SUM 2l+1 LMDIM =     22
   total plane-waves  NPLWV = 614400
   max r-space proj   IRMAX =   9495   max aug-charges    IRDMAX=   6890
   dimension x,y,z NGX =    80 NGY =   80 NGZ =   96
   dimension x,y,z NGXF=   160 NGYF=  160 NGZF=  192
   support grid    NGXF=   160 NGYF=  160 NGZF=  192
   ions per type =               1   1
   NGX,Y,Z   is equivalent  to a cutoff of  13.55, 13.55, 12.57 a.u.
   NGXF,Y,Z  is equivalent  to a cutoff of  27.10, 27.10, 25.14 a.u.

 SYSTEM =  Co–organic framework                  
 POSCAR =  C  O                                    

 Startparameter for this run:
   NWRITE =      2    write-flag & timer
   PREC   = accura    normal or accurate (medium, high low for compatibility)
   ISTART =      0    job   : 0-new  1-cont  2-samecut
   ICHARG =      2    charge: 1-file 2-atom 10-const
   ISPIN  =      2    spin polarized calculation?
   LNONCOLLINEAR =      F non collinear calculations
   LSORBIT =      F    spin-orbit coupling
   INIWAV =      1    electr: 0-lowe 1-rand  2-diag
   LASPH  =      F    aspherical Exc in radial PAW
   METAGGA=      F    non-selfconsistent MetaGGA calc.

 Electronic Relaxation 1
   ENCUT  =  520.0 eV  38.22 Ry    6.18 a.u.  18.25 18.25 23.61*2*pi/ulx,y,z
   ENINI  =  520.0     initial cutoff
   ENAUG  = 1213.9 eV  augmentation charge cutoff
   NELM   =    100;   NELMIN=  5; NELMDL=  0     # of ELM steps 
   EDIFF  = 0.1E-05   stopping-criterion for ELM
   LREAL  =      T    real-space projection
   NLSPLINE    = F    spline interpolate recip. space projectors
   LCOMPAT=      F    compatible to vasp.4.4
   GGA_COMPAT  = T    GGA compatible to vasp.4.4-vasp.4.6
   LMAXPAW     = -100 max onsite density
   LMAXMIX     =    2 max onsite mixed and CHGCAR
   VOSKOWN=      0    Vosko Wilk Nusair interpolation
   ROPT   =   -0.00025  -0.00025
 Ionic relaxation
   EDIFFG = -.5E-02   stopping-criterion for IOM
   NSW    =   1000    number of steps for IOM
   NBLOCK =      1;   KBLOCK =   1000    inner block; outer block 
   IBRION =      2    ionic relax: 0-MD 1-quasi-New 2-CG
   NFREE  =      1    steps in history (QN), initial steepest desc. (CG)
   ISIF   =      3    stress and relaxation
   IWAVPR =     11    prediction:  0-non 1-charg 2-wave 3-comb
   ISYM   =      0    0-nonsym 1-usesym 2-fastsym
   LCORR  =      T    Harris-Foulkes like correction to forces

   POTIM  = 0.5000    time-step for ionic-motion
   TEIN   =    0.0    initial temperature
   TEBEG  =    0.0;   TEEND  =   0.0 temperature during run
   SMASS  =  -3.00    Nose mass-parameter (am)
   estimated Nose-frequenzy (Omega)   =  0.10E-29 period in steps =****** mass=  -0.220E-26a.u.
   SCALEE = 1.0000    scale energy and forces
   NPACO  =    256;   APACO  = 16.0  distance and # of slots for P.C.
   PSTRESS=    0.0 pullay stress

  Mass of Ions in am
   POMASS =  16.00 12.01
  Ionic Valenz
   ZVAL   =   6.00  4.00
  Atomic Wigner-Seitz radii
   RWIGS  =  -1.00 -1.00
  virtual crystal weights 
   VCA    =   1.00  1.00
   NELECT =      10.0000    total number of electrons
   NUPDOWN=      -1.0000    fix difference up-down

 DOS related values:
   EMIN   =  10.00;   EMAX   =-10.00  energy-range for DOS
   EFERMI =   0.00
   ISMEAR =     0;   SIGMA  =   0.05  broadening in eV -4-tet -1-fermi 0-gaus

 Electronic relaxation 2 (details)
   IALGO  =     68    algorithm
   LDIAG  =      T    sub-space diagonalisation (order eigenvalues)
   LSUBROT=      F    optimize rotation matrix (better conditioning)
   TURBO    =      0    0=normal 1=particle mesh
   IRESTART =      0    0=no restart 2=restart with 2 vectors
   NREBOOT  =      0    no. of reboots
   NMIN     =      0    reboot dimension
   EREF     =   0.00    reference energy to select bands
   IMIX   =      4    mixing-type and parameters
     AMIX     =   0.40;   BMIX     =  1.00
     AMIX_MAG =   1.60;   BMIX_MAG =  1.00
     AMIN     =   0.10
     WC   =   100.;   INIMIX=   1;  MIXPRE=   1;  MAXMIX= -45

 Intra band minimization:
   WEIMIN = 0.0010     energy-eigenvalue tresh-hold
   EBREAK =  0.21E-07  absolut break condition
   DEPER  =   0.30     relativ break condition  

   TIME   =   0.40     timestep for ELM

  volume/ion in A,a.u.               =     491.59      3317.43
  Fermi-wavevector in a.u.,A,eV,Ry     =   0.354701  0.670288  1.711791  0.125813
  Thomas-Fermi vector in A             =   1.269946
 
 Write flags
   LWAVE        =      F    write WAVECAR
   LDOWNSAMPLE  =      F    k-point downsampling of WAVECAR
   LCHARG       =      T    write CHGCAR
   LVTOT        =      F    write LOCPOT, total local potential
   LVHAR        =      F    write LOCPOT, Hartree potential only
   LELF         =      F    write electronic localiz. function (ELF)
   LORBIT       =      0    0 simple, 1 ext, 2 COOP (PROOUT), +10 PAW based schemes


 Dipole corrections
   LMONO  =      F    monopole corrections only (constant potential shift)
   LDIPOL =      F    correct potential (dipole corrections)
   IDIPOL =      0    1-x, 2-y, 3-z, 4-all directions 
   EPSILON=  1.0000000 bulk dielectric constant

 Exchange correlation treatment:
   GGA     =    --    GGA type
   LEXCH   =     8    internal setting for exchange type
   VOSKOWN=      0    Vosko Wilk Nusair interpolation
   LHFCALC =     F    Hartree Fock is set to
   LHFONE  =     F    Hartree Fock one center treatment
   AEXX    =    0.0000 exact exchange contribution

 Linear response parameters
   LEPSILON=     F    determine dielectric tensor
   LRPA    =     F    only Hartree local field effects (RPA)
   LNABLA  =     F    use nabla operator in PAW spheres
   LVEL    =     F    velocity operator in full k-point grid
   LINTERFAST=   F  fast interpolation
   KINTER  =     0    interpolate to denser k-point grid
   CSHIFT  =0.1000    complex shift for real part using Kramers Kronig
   OMEGAMAX=  -1.0    maximum frequency
   DEG_THRESHOLD= 0.2000000E-02 threshold for treating states as degnerate
   RTIME   =   -0.100 relaxation time in fs
  (WPLASMAI=    0.000 imaginary part of plasma frequency in eV, 0.658/RTIME)
   DFIELD  = 0.0000000 0.0000000 0.0000000 field for delta impulse in time
 
 Orbital magnetization related:
   ORBITALMAG=     F  switch on orbital magnetization
   LCHIMAG   =     F  perturbation theory with respect to B field
   DQ        =  0.001000  dq finite difference perturbation B field
   LLRAUG    =     F  two centre corrections for induced B field



--------------------------------------------------------------------------------------------------------


 conjugate gradient relaxation of ions
 charge density and potential will be updated during run
 spin polarized calculation
 RMM-DIIS sequential band-by-band and
  variant of blocked Davidson during initial phase
 perform sub-space diagonalisation
    before iterative eigenvector-optimisation
 modified Broyden-mixing scheme, WC =      100.0
 initial mixing is a Kerker type mixing with AMIX =  0.4000 and BMIX =      1.0000
 Hartree-type preconditioning will be used
 using additional bands            7
 real space projection scheme for non local part
 use partial core corrections
 calculate Harris-corrections to forces 
   (improved forces if not selfconsistent)
 use gradient corrections 
 use of overlap-Matrix (Vanderbilt PP)
 Gauss-broadening in eV      SIGMA  =   0.05


--------------------------------------------------------------------------------------------------------


  energy-cutoff  :      520.00
  volume of cell :      983.19
      direct lattice vectors                 reciprocal lattice vectors
     9.813846588  0.000000000  0.000000000     0.101896845  0.054495304  0.026738404
    -4.628217006  8.653969737  0.000000000     0.000000000  0.115553905 -0.026738377
    -4.470393332  2.678746180 11.576603077     0.000000000  0.000000000  0.086381125

  length of vectors
     9.813846588  9.813846588 12.695583344     0.118607113  0.118607107  0.086381125


 
 k-points in units of 2pi/SCALE and weight: mof                                     
   0.00000000  0.00000000  0.00000000       1.000
 
 k-points in reciprocal lattice and weights: mof                                     
   0.00000000  0.00000000  0.00000000       1.000
 
 position of ions in fractional coordinates (direct lattice) 
   0.49767300  0.49480379  0.59510957
   0.59096600  0.59946821  0.54844843
 
 position of ions in cartesian coordinates  (Angst):
  -0.06634671  5.87616453  6.88934724
   0.57340051  6.65693387  6.34916983
 


--------------------------------------------------------------------------------------------------------


 k-point  1 :   0.0000 0.0000 0.0000  plane waves:   26503

 maximum and minimum number of plane-waves per node :      6628     6622

 maximum number of plane-waves:     26503
 maximum index in each direction: 
   IXMAX=   18   IYMAX=   18   IZMAX=   23
   IXMIN=  -18   IYMIN=  -18   IZMIN=  -23


 real space projection operators:
  total allocation   :       2620.41 KBytes
  max/ min on nodes  :        658.90        649.35


 parallel 3D FFT for wavefunctions:
    minimum data exchange during FFTs selected (reduces bandwidth)
 parallel 3D FFT for charge:
    minimum data exchange during FFTs selected (reduces bandwidth)


 total amount of memory used by VASP MPI-rank0    73028. kBytes
=======================================================================

   base      :      30000. kBytes
   nonlr-proj:       1132. kBytes
   fftplans  :      11740. kBytes
   grid      :      29685. kBytes
   one-center:         46. kBytes
   wavefun   :        425. kBytes
 
     INWAV:  cpu time    0.0000: real time    0.0001
 Broyden mixing: mesh for mixing (old mesh)
   NGX = 37   NGY = 37   NGZ = 47
  (NGX  =160   NGY  =160   NGZ  =192)
  gives a total of  64343 points

 initial charge density was supplied:
 charge density of overlapping atoms calculated
 number of electron      10.0000000 magnetization       0.0000000
 keeping initial charge density in first step


--------------------------------------------------------------------------------------------------------


 Maximum index for non-local projection operator         2311
 Maximum index for augmentation-charges          348 (set IRDMAX)


--------------------------------------------------------------------------------------------------------


 First call to EWALD:  gamma=   0.178
 Maximum number of real-space cells 3x 3x 2
 Maximum number of reciprocal cells 3x 3x 3

    FEWALD:  cpu time    0.0020: real time    0.0021


--------------------------------------- Iteration      1(   1)  ---------------------------------------


    POTLOK:  cpu time    0.3629: real time    0.3806
    SETDIJ:  cpu time    0.0100: real time    0.0092
     EDDAV:  cpu time    0.1910: real time    0.1918
       DOS:  cpu time    0.0010: real time    0.0004
    --------------------------------------------
      LOOP:  cpu time    0.5649: real time    0.5821

 eigenvalue-minimisations  :    60
 total energy-change (2. order) : 0.9115973E+02  (-0.2449339E+03)
 number of electron      10.0000000 magnetization       0.0000000
 augmentation part       10.0000000 magnetization       0.0000000

 Free energy of the ion-electron system (eV)
  ---------------------------------------------------
  alpha Z        PSCENC =         0.15469953
  Ewald energy   TEWEN  =        99.29223935
  -Hartree energ DENC   =      -562.04813637
  -exchange      EXHF   =         0.00000000
  -V(xc)+E(xc)   XCENC  =        31.52082247
  PAW double counting   =       463.69512993     -457.43959568
  entropy T*S    EENTRO =        -0.00000004
  eigenvalues    EBANDS =       -63.51855891
  atomic energy  EATOM  =       579.50312721
  Solvation  Ediel_sol  =         0.00000000
  ---------------------------------------------------
  free energy    TOTEN  =        91.15972750 eV

  energy without entropy =       91.15972753  energy(sigma->0) =       91.15972752


--------------------------------------------------------------------------------------------------------




--------------------------------------- Iteration      1(   2)  ---------------------------------------


     EDDAV:  cpu time    0.2460: real time    0.2503
       DOS:  cpu time    0.0000: real time    0.0003
    --------------------------------------------
      LOOP:  cpu time    0.2460: real time    0.2507

 eigenvalue-minimisations  :    84
 total energy-change (2. order) :-0.9067265E+02  (-0.8257761E+02)
 number of electron      10.0000000 magnetization       0.0000000
 augmentation part       10.0000000 magnetization       0.0000000

 Free energy of the ion-electron system (eV)
  ---------------------------------------------------
  alpha Z        PSCENC =         0.15469953
  Ewald energy   TEWEN  =        99.29223935
  -Hartree energ DENC   =      -562.04813637
  -exchange      EXHF   =         0.00000000
  -V(xc)+E(xc)   XCENC  =        31.52082247
  PAW double counting   =       463.69512993     -457.43959568
  entropy T*S    EENTRO =        -0.00000000
  eigenvalues    EBANDS =      -154.19120444
  atomic energy  EATOM  =       579.50312721
  Solvation  Ediel_sol  =         0.00000000
  ---------------------------------------------------
  free energy    TOTEN  =         0.48708200 eV

  energy without entropy =        0.48708200  energy(sigma->0) =        0.48708200


--------------------------------------------------------------------------------------------------------




--------------------------------------- Iteration      1(   3)  ---------------------------------------


     EDDAV:  cpu time    0.2460: real time    0.2497
       DOS:  cpu time    0.0010: real time    0.0003
    --------------------------------------------
      LOOP:  cpu time    0.2470: real time    0.2499

 eigenvalue-minimisations  :    84
 total energy-change (2. order) :-0.1611670E+02  (-0.1611670E+02)
 number of electron      10.0000000 magnetization       0.0000000
 augmentation part       10.0000000 magnetization       0.0000000

 Free energy of the ion-electron system (eV)
  ---------------------------------------------------
  alpha Z        PSCENC =         0.15469953
  Ewald energy   TEWEN  =        99.29223935
  -Hartree energ DENC   =      -562.04813637
  -exchange      EXHF   =         0.00000000
  -V(xc)+E(xc)   XCENC  =        31.52082247
  PAW double counting   =       463.69512993     -457.43959568
  entropy T*S    EENTRO =        -0.00000000
  eigenvalues    EBANDS =      -170.30790532
  atomic energy  EATOM  =       579.50312721
  Solvation  Ediel_sol  =         0.00000000
  ---------------------------------------------------
  free energy    TOTEN  =       -15.62961888 eV

  energy without entropy =      -15.62961888  energy(sigma->0) =      -15.62961888


--------------------------------------------------------------------------------------------------------




--------------------------------------- Iteration      1(   4)  ---------------------------------------


     EDDAV:  cpu time    0.1570: real time    0.1602
       DOS:  cpu time    0.0000: real time    0.0003
    --------------------------------------------
      LOOP:  cpu time    0.1570: real time    0.1605

 eigenvalue-minimisations  :    48
 total energy-change (2. order) :-0.1457808E+00  (-0.1457808E+00)
 number of electron      10.0000000 magnetization       0.0000000
 augmentation part       10.0000000 magnetization       0.0000000

 Free energy of the ion-electron system (eV)
  ---------------------------------------------------
  alpha Z        PSCENC =         0.15469953
  Ewald energy   TEWEN  =        99.29223935
  -Hartree energ DENC   =      -562.04813637
  -exchange      EXHF   =         0.00000000
  -V(xc)+E(xc)   XCENC  =        31.52082247
  PAW double counting   =       463.69512993     -457.43959568
  entropy T*S    EENTRO =        -0.00000000
  eigenvalues    EBANDS =      -170.45368609
  atomic energy  EATOM  =       579.50312721
  Solvation  Ediel_sol  =         0.00000000
  ---------------------------------------------------
  free energy    TOTEN  =       -15.77539964 eV

  energy without entropy =      -15.77539964  energy(sigma->0) =      -15.77539964


--------------------------------------------------------------------------------------------------------




--------------------------------------- Iteration      1(   5)  ---------------------------------------


     EDDAV:  cpu time    0.2450: real time    0.2493
       DOS:  cpu time    0.0010: real time    0.0004
    CHARGE:  cpu time    0.0360: real time    0.0376
    MIXING:  cpu time    0.0100: real time    0.0093
    --------------------------------------------
      LOOP:  cpu time    0.2920: real time    0.2967

 eigenvalue-minimisations  :    84
 total energy-change (2. order) :-0.1863165E-02  (-0.1863165E-02)
 number of electron       9.9999999 magnetization       0.0000000
 augmentation part        0.6202867 magnetization       0.0000123

 Broyden mixing:
  rms(total) = 0.17852E+01    rms(broyden)= 0.17850E+01
  rms(prec ) = 0.18270E+01
  weight for this iteration     100.00

 Free energy of the ion-electron system (eV)
  ---------------------------------------------------
  alpha Z        PSCENC =         0.15469953
  Ewald energy   TEWEN  =        99.29223935
  -Hartree energ DENC   =      -562.04813637
  -exchange      EXHF   =         0.00000000
  -V(xc)+E(xc)   XCENC  =        31.52082247
  PAW double counting   =       463.69512993     -457.43959568
  entropy T*S    EENTRO =        -0.00000000
  eigenvalues    EBANDS =      -170.45554925
  atomic energy  EATOM  =       579.50312721
  Solvation  Ediel_sol  =         0.00000000
  ---------------------------------------------------
  free energy    TOTEN  =       -15.77726281 eV

  energy without entropy =      -15.77726281  energy(sigma->0) =      -15.77726281


--------------------------------------------------------------------------------------------------------




--------------------------------------- Iteration      1(   6)  ---------------------------------------


    POTLOK:  cpu time    0.3649: real time    0.3686
    SETDIJ:  cpu time    0.0080: real time    0.0080
    EDDIAG:  cpu time    0.0370: real time    0.0369
  RMM-DIIS:  cpu time    0.1470: real time    0.1481
    ORTHCH:  cpu time    0.0020: real time    0.0017
       DOS:  cpu time    0.0000: real time    0.0004
    CHARGE:  cpu time    0.0360: real time    0.0358
    MIXING:  cpu time    0.0080: real time    0.0080
    --------------------------------------------
      LOOP:  cpu time    0.6029: real time    0.6074

 eigenvalue-minimisations  :    48
 total energy-change (2. order) : 0.6855238E+00  (-0.1532698E+00)
 number of electron       9.9999999 magnetization       0.0000000
 augmentation part        0.5447279 magnetization      -0.0000035

 Broyden mixing:
  rms(total) = 0.10911E+01    rms(broyden)= 0.10911E+01
  rms(prec ) = 0.11057E+01
  weight for this iteration     100.00

 eigenvalues of (default mixing * dielectric matrix)
  average eigenvalue GAMMA=   2.0129
  2.0129

 Free energy of the ion-electron system (eV)
  ---------------------------------------------------
  alpha Z        PSCENC =         0.15469953
  Ewald energy   TEWEN  =        99.29223935
  -Hartree energ DENC   =      -576.34744102
  -exchange      EXHF   =         0.00000000
  -V(xc)+E(xc)   XCENC  =        32.33000970
  PAW double counting   =       657.96274565     -651.79226814
  entropy T*S    EENTRO =        -0.00000000
  eigenvalues    EBANDS =      -156.19485128
  atomic energy  EATOM  =       579.50312721
  Solvation  Ediel_sol  =         0.00000000
  ---------------------------------------------------
  free energy    TOTEN  =       -15.09173899 eV

  energy without entropy =      -15.09173899  energy(sigma->0) =      -15.09173899


--------------------------------------------------------------------------------------------------------




--------------------------------------- Iteration      1(   7)  ---------------------------------------


    POTLOK:  cpu time    0.3629: real time    0.3683
    SETDIJ:  cpu time    0.0080: real time    0.0079
    EDDIAG:  cpu time    0.0370: real time    0.0367
  RMM-DIIS:  cpu time    0.1430: real time    0.1430
    ORTHCH:  cpu time    0.0000: real time    0.0012
       DOS:  cpu time    0.0010: real time    0.0003
    CHARGE:  cpu time    0.0340: real time    0.0349
    MIXING:  cpu time    0.0090: real time    0.0087
    --------------------------------------------
      LOOP:  cpu time    0.5949: real time    0.6008

 eigenvalue-minimisations  :    48
 total energy-change (2. order) : 0.1348027E+00  (-0.6844764E-01)
 number of electron       9.9999999 magnetization       0.0000000
 augmentation part        0.5685147 magnetization      -0.0000015

 Broyden mixing:
  rms(total) = 0.31565E+00    rms(broyden)= 0.31563E+00
  rms(prec ) = 0.33522E+00
  weight for this iteration     100.00

 eigenvalues of (default mixing * dielectric matrix)
  average eigenvalue GAMMA=   1.6510
  0.8090  2.4931

 Free energy of the ion-electron system (eV)
  ---------------------------------------------------
  alpha Z        PSCENC =         0.15469953
  Ewald energy   TEWEN  =        99.29223935
  -Hartree energ DENC   =      -581.28314402
  -exchange      EXHF   =         0.00000000
  -V(xc)+E(xc)   XCENC  =        32.64817001
  PAW double counting   =       917.51441829     -911.47307937
  entropy T*S    EENTRO =        -0.00000000
  eigenvalues    EBANDS =      -151.31336732
  atomic energy  EATOM  =       579.50312721
  Solvation  Ediel_sol  =         0.00000000
  ---------------------------------------------------
  free energy    TOTEN  =       -14.95693631 eV

  energy without entropy =      -14.95693631  energy(sigma->0) =      -14.95693631


--------------------------------------------------------------------------------------------------------




--------------------------------------- Iteration      1(   8)  ---------------------------------------


    POTLOK:  cpu time    0.3579: real time    0.3622
    SETDIJ:  cpu time    0.0080: real time    0.0080
    EDDIAG:  cpu time    0.0360: real time    0.0366
  RMM-DIIS:  cpu time    0.1430: real time    0.1439
    ORTHCH:  cpu time    0.0010: real time    0.0012
       DOS:  cpu time    0.0010: real time    0.0003
    CHARGE:  cpu time    0.0340: real time    0.0351
    MIXING:  cpu time    0.0080: real time    0.0081
    --------------------------------------------
      LOOP:  cpu time    0.5899: real time    0.5954

 eigenvalue-minimisations  :    48
 total energy-change (2. order) : 0.3685272E-01  (-0.1392124E-01)
 number of electron       9.9999999 magnetization       0.0000000
 augmentation part        0.5418790 magnetization      -0.0000014

 Broyden mixing:
  rms(total) = 0.65256E-01    rms(broyden)= 0.65219E-01
  rms(prec ) = 0.75267E-01
  weight for this iteration     100.00

 eigenvalues of (default mixing * dielectric matrix)
  average eigenvalue GAMMA=   1.8125
  2.7152  1.9417  0.7805

 Free energy of the ion-electron system (eV)
  ---------------------------------------------------
  alpha Z        PSCENC =         0.15469953
  Ewald energy   TEWEN  =        99.29223935
  -Hartree energ DENC   =      -584.61155286
  -exchange      EXHF   =         0.00000000
  -V(xc)+E(xc)   XCENC  =        32.84582361
  PAW double counting   =      1016.99570029    -1010.99163173
  entropy T*S    EENTRO =        -0.00000000
  eigenvalues    EBANDS =      -148.10848900
  atomic energy  EATOM  =       579.50312721
  Solvation  Ediel_sol  =         0.00000000
  ---------------------------------------------------
  free energy    TOTEN  =       -14.92008359 eV

  energy without entropy =      -14.92008359  energy(sigma->0) =      -14.92008359


--------------------------------------------------------------------------------------------------------




--------------------------------------- Iteration      1(   9)  ---------------------------------------


    POTLOK:  cpu time    0.3579: real time    0.3615
    SETDIJ:  cpu time    0.0070: real time    0.0078
    EDDIAG:  cpu time    0.0370: real time    0.0368
  RMM-DIIS:  cpu time    0.1430: real time    0.1431
    ORTHCH:  cpu time    0.0010: real time    0.0012
       DOS:  cpu time    0.0000: real time    0.0003
    CHARGE:  cpu time    0.0350: real time    0.0355
    MIXING:  cpu time    0.0090: real time    0.0084
    --------------------------------------------
      LOOP:  cpu time    0.5889: real time    0.5947

 eigenvalue-minimisations  :    48
 total energy-change (2. order) : 0.5858241E-02  (-0.3827020E-02)
 number of electron       9.9999999 magnetization       0.0000000
 augmentation part        0.5402299 magnetization      -0.0000012

 Broyden mixing:
  rms(total) = 0.19410E-01    rms(broyden)= 0.19402E-01
  rms(prec ) = 0.25089E-01
  weight for this iteration     100.00

 eigenvalues of (default mixing * dielectric matrix)
  average eigenvalue GAMMA=   1.5746
  2.6876  0.8565  0.8565  1.8978

 Free energy of the ion-electron system (eV)
  ---------------------------------------------------
  alpha Z        PSCENC =         0.15469953
  Ewald energy   TEWEN  =        99.29223935
  -Hartree energ DENC   =      -582.63014958
  -exchange      EXHF   =         0.00000000
  -V(xc)+E(xc)   XCENC  =        32.73537526
  PAW double counting   =      1021.83802573    -1015.82925890
  entropy T*S    EENTRO =        -0.00000000
  eigenvalues    EBANDS =      -149.97828394
  atomic energy  EATOM  =       579.50312721
  Solvation  Ediel_sol  =         0.00000000
  ---------------------------------------------------
  free energy    TOTEN  =       -14.91422535 eV

  energy without entropy =      -14.91422535  energy(sigma->0) =      -14.91422535


--------------------------------------------------------------------------------------------------------




--------------------------------------- Iteration      1(  10)  ---------------------------------------


    POTLOK:  cpu time    0.3579: real time    0.3623
    SETDIJ:  cpu time    0.0080: real time    0.0080
    EDDIAG:  cpu time    0.0370: real time    0.0366
  RMM-DIIS:  cpu time    0.1410: real time    0.1428
    ORTHCH:  cpu time    0.0020: real time    0.0012
       DOS:  cpu time    0.0000: real time    0.0003
    CHARGE:  cpu time    0.0350: real time    0.0354
    MIXING:  cpu time    0.0090: real time    0.0086
    --------------------------------------------
      LOOP:  cpu time    0.5899: real time    0.5950

 eigenvalue-minimisations  :    48
 total energy-change (2. order) :-0.1061090E-03  (-0.2185429E-03)
 number of electron       9.9999999 magnetization       0.0000000
 augmentation part        0.5436356 magnetization       0.0000013

 Broyden mixing:
  rms(total) = 0.67278E-02    rms(broyden)= 0.67233E-02
  rms(prec ) = 0.91304E-02
  weight for this iteration     100.00

 eigenvalues of (default mixing * dielectric matrix)
  average eigenvalue GAMMA=   1.6687
  2.5298  2.0101  2.0101  0.8238  0.9697

 Free energy of the ion-electron system (eV)
  ---------------------------------------------------
  alpha Z        PSCENC =         0.15469953
  Ewald energy   TEWEN  =        99.29223935
  -Hartree energ DENC   =      -582.59678848
  -exchange      EXHF   =         0.00000000
  -V(xc)+E(xc)   XCENC  =        32.73025412
  PAW double counting   =      1021.43583269    -1015.42624243
  entropy T*S    EENTRO =        -0.00000000
  eigenvalues    EBANDS =      -150.00745345
  atomic energy  EATOM  =       579.50312721
  Solvation  Ediel_sol  =         0.00000000
  ---------------------------------------------------
  free energy    TOTEN  =       -14.91433146 eV

  energy without entropy =      -14.91433146  energy(sigma->0) =      -14.91433146


--------------------------------------------------------------------------------------------------------




--------------------------------------- Iteration      1(  11)  ---------------------------------------


    POTLOK:  cpu time    0.3579: real time    0.3618
    SETDIJ:  cpu time    0.0060: real time    0.0078
    EDDIAG:  cpu time    0.0370: real time    0.0366
  RMM-DIIS:  cpu time    0.1420: real time    0.1434
    ORTHCH:  cpu time    0.0020: real time    0.0012
       DOS:  cpu time    0.0000: real time    0.0003
    CHARGE:  cpu time    0.0340: real time    0.0352
    MIXING:  cpu time    0.0090: real time    0.0093
    --------------------------------------------
      LOOP:  cpu time    0.5889: real time    0.5956

 eigenvalue-minimisations  :    48
 total energy-change (2. order) :-0.1529369E-02  (-0.1018439E-03)
 number of electron       9.9999999 magnetization      -0.0000000
 augmentation part        0.5438194 magnetization      -0.0000026

 Broyden mixing:
  rms(total) = 0.51596E-02    rms(broyden)= 0.51590E-02
  rms(prec ) = 0.70494E-02
  weight for this iteration     100.00

 eigenvalues of (default mixing * dielectric matrix)
  average eigenvalue GAMMA=   1.6482
  2.7983  2.5410  1.6469  0.8143  1.0445  1.0445

 Free energy of the ion-electron system (eV)
  ---------------------------------------------------
  alpha Z        PSCENC =         0.15469953
  Ewald energy   TEWEN  =        99.29223935
  -Hartree energ DENC   =      -582.98867172
  -exchange      EXHF   =         0.00000000
  -V(xc)+E(xc)   XCENC  =        32.74457105
  PAW double counting   =      1019.39661471    -1013.38557306
  entropy T*S    EENTRO =        -0.00000000
  eigenvalues    EBANDS =      -149.63286790
  atomic energy  EATOM  =       579.50312721
  Solvation  Ediel_sol  =         0.00000000
  ---------------------------------------------------
  free energy    TOTEN  =       -14.91586083 eV

  energy without entropy =      -14.91586083  energy(sigma->0) =      -14.91586083


--------------------------------------------------------------------------------------------------------




--------------------------------------- Iteration      1(  12)  ---------------------------------------


    POTLOK:  cpu time    0.3579: real time    0.3619
    SETDIJ:  cpu time    0.0080: real time    0.0080
    EDDIAG:  cpu time    0.0370: real time    0.0366
  RMM-DIIS:  cpu time    0.1440: real time    0.1445
    ORTHCH:  cpu time    0.0010: real time    0.0012
       DOS:  cpu time    0.0000: real time    0.0003
    CHARGE:  cpu time    0.0350: real time    0.0351
    MIXING:  cpu time    0.0090: real time    0.0088
    --------------------------------------------
      LOOP:  cpu time    0.5909: real time    0.5963

 eigenvalue-minimisations  :    48
 total energy-change (2. order) :-0.6406283E-03  (-0.2285785E-04)
 number of electron       9.9999999 magnetization       0.0000000
 augmentation part        0.5438627 magnetization       0.0000021

 Broyden mixing:
  rms(total) = 0.19960E-02    rms(broyden)= 0.19960E-02
  rms(prec ) = 0.31245E-02
  weight for this iteration     100.00

 eigenvalues of (default mixing * dielectric matrix)
  average eigenvalue GAMMA=   1.5199
  2.5853  2.5853  1.4082  1.4082  1.0799  0.7860  0.7860

 Free energy of the ion-electron system (eV)
  ---------------------------------------------------
  alpha Z        PSCENC =         0.15469953
  Ewald energy   TEWEN  =        99.29223935
  -Hartree energ DENC   =      -582.88989461
  -exchange      EXHF   =         0.00000000
  -V(xc)+E(xc)   XCENC  =        32.73618754
  PAW double counting   =      1019.10325262    -1013.09103100
  entropy T*S    EENTRO =        -0.00000000
  eigenvalues    EBANDS =      -149.72508210
  atomic energy  EATOM  =       579.50312721
  Solvation  Ediel_sol  =         0.00000000
  ---------------------------------------------------
  free energy    TOTEN  =       -14.91650146 eV

  energy without entropy =      -14.91650146  energy(sigma->0) =      -14.91650146


--------------------------------------------------------------------------------------------------------




--------------------------------------- Iteration      1(  13)  ---------------------------------------


    POTLOK:  cpu time    0.3579: real time    0.3621
    SETDIJ:  cpu time    0.0070: real time    0.0078
    EDDIAG:  cpu time    0.0360: real time    0.0367
  RMM-DIIS:  cpu time    0.1420: real time    0.1420
    ORTHCH:  cpu time    0.0020: real time    0.0012
       DOS:  cpu time    0.0000: real time    0.0003
    CHARGE:  cpu time    0.0340: real time    0.0354
    MIXING:  cpu time    0.0090: real time    0.0090
    --------------------------------------------
      LOOP:  cpu time    0.5889: real time    0.5945

 eigenvalue-minimisations  :    48
 total energy-change (2. order) :-0.6134099E-03  (-0.8118122E-05)
 number of electron       9.9999999 magnetization       0.0000000
 augmentation part        0.5435462 magnetization       0.0000013

 Broyden mixing:
  rms(total) = 0.21786E-02    rms(broyden)= 0.21783E-02
  rms(prec ) = 0.29432E-02
  weight for this iteration     100.00

 eigenvalues of (default mixing * dielectric matrix)
  average eigenvalue GAMMA=   1.7448
  3.1568  3.1568  2.4369  1.6025  1.1722  0.9712  0.8125  0.6493

 Free energy of the ion-electron system (eV)
  ---------------------------------------------------
  alpha Z        PSCENC =         0.15469953
  Ewald energy   TEWEN  =        99.29223935
  -Hartree energ DENC   =      -582.94944007
  -exchange      EXHF   =         0.00000000
  -V(xc)+E(xc)   XCENC  =        32.73827173
  PAW double counting   =      1018.55798522    -1012.54554836
  entropy T*S    EENTRO =        -0.00000000
  eigenvalues    EBANDS =      -149.66844948
  atomic energy  EATOM  =       579.50312721
  Solvation  Ediel_sol  =         0.00000000
  ---------------------------------------------------
  free energy    TOTEN  =       -14.91711487 eV

  energy without entropy =      -14.91711487  energy(sigma->0) =      -14.91711487


--------------------------------------------------------------------------------------------------------




--------------------------------------- Iteration      1(  14)  ---------------------------------------


    POTLOK:  cpu time    0.3559: real time    0.3599
    SETDIJ:  cpu time    0.0080: real time    0.0078
    EDDIAG:  cpu time    0.0370: real time    0.0366
  RMM-DIIS:  cpu time    0.1440: real time    0.1445
    ORTHCH:  cpu time    0.0000: real time    0.0013
       DOS:  cpu time    0.0010: real time    0.0003
    CHARGE:  cpu time    0.0350: real time    0.0352
    MIXING:  cpu time    0.0090: real time    0.0092
    --------------------------------------------
      LOOP:  cpu time    0.5899: real time    0.5950

 eigenvalue-minimisations  :    48
 total energy-change (2. order) :-0.5665865E-03  (-0.1393243E-04)
 number of electron       9.9999999 magnetization       0.0000000
 augmentation part        0.5435577 magnetization       0.0000038

 Broyden mixing:
  rms(total) = 0.18691E-02    rms(broyden)= 0.18691E-02
  rms(prec ) = 0.21188E-02
  weight for this iteration     100.00

 eigenvalues of (default mixing * dielectric matrix)
  average eigenvalue GAMMA=   1.6808
  4.0927  2.5841  2.2165  1.4256  1.4256  1.0597  0.8463  0.8463  0.6298

 Free energy of the ion-electron system (eV)
  ---------------------------------------------------
  alpha Z        PSCENC =         0.15469953
  Ewald energy   TEWEN  =        99.29223935
  -Hartree energ DENC   =      -583.05257850
  -exchange      EXHF   =         0.00000000
  -V(xc)+E(xc)   XCENC  =        32.74095272
  PAW double counting   =      1018.46718316    -1012.45442241
  entropy T*S    EENTRO =        -0.00000000
  eigenvalues    EBANDS =      -149.56888251
  atomic energy  EATOM  =       579.50312721
  Solvation  Ediel_sol  =         0.00000000
  ---------------------------------------------------
  free energy    TOTEN  =       -14.91768145 eV

  energy without entropy =      -14.91768145  energy(sigma->0) =      -14.91768145


--------------------------------------------------------------------------------------------------------




--------------------------------------- Iteration      1(  15)  ---------------------------------------


    POTLOK:  cpu time    0.3559: real time    0.3601
    SETDIJ:  cpu time    0.0080: real time    0.0079
    EDDIAG:  cpu time    0.0370: real time    0.0368
  RMM-DIIS:  cpu time    0.1430: real time    0.1432
    ORTHCH:  cpu time    0.0000: real time    0.0012
       DOS:  cpu time    0.0010: real time    0.0003
    CHARGE:  cpu time    0.0340: real time    0.0348
    MIXING:  cpu time    0.0110: real time    0.0105
    --------------------------------------------
      LOOP:  cpu time    0.5889: real time    0.5947

 eigenvalue-minimisations  :    48
 total energy-change (2. order) :-0.1768171E-04  (-0.1250530E-05)
 number of electron       9.9999999 magnetization       0.0000000
 augmentation part        0.5436630 magnetization       0.0000081

 Broyden mixing:
  rms(total) = 0.40506E-03    rms(broyden)= 0.40458E-03
  rms(prec ) = 0.73735E-03
  weight for this iteration     100.00

 eigenvalues of (default mixing * dielectric matrix)
  average eigenvalue GAMMA=   1.7369
  4.7350  2.5440  2.1165  1.8130  1.8130  1.0755  0.8339  0.9064  0.9064  0.6258

 Free energy of the ion-electron system (eV)
  ---------------------------------------------------
  alpha Z        PSCENC =         0.15469953
  Ewald energy   TEWEN  =        99.29223935
  -Hartree energ DENC   =      -583.04670454
  -exchange      EXHF   =         0.00000000
  -V(xc)+E(xc)   XCENC  =        32.74022295
  PAW double counting   =      1018.74407637    -1012.73142091
  entropy T*S    EENTRO =        -0.00000000
  eigenvalues    EBANDS =      -149.57393910
  atomic energy  EATOM  =       579.50312721
  Solvation  Ediel_sol  =         0.00000000
  ---------------------------------------------------
  free energy    TOTEN  =       -14.91769913 eV

  energy without entropy =      -14.91769913  energy(sigma->0) =      -14.91769913


--------------------------------------------------------------------------------------------------------




--------------------------------------- Iteration      1(  16)  ---------------------------------------


    POTLOK:  cpu time    0.3559: real time    0.3603
    SETDIJ:  cpu time    0.0080: real time    0.0076
    EDDIAG:  cpu time    0.0350: real time    0.0366
  RMM-DIIS:  cpu time    0.1430: real time    0.1425
    ORTHCH:  cpu time    0.0010: real time    0.0012
       DOS:  cpu time    0.0000: real time    0.0004
    CHARGE:  cpu time    0.0360: real time    0.0352
    MIXING:  cpu time    0.0080: real time    0.0097
    --------------------------------------------
      LOOP:  cpu time    0.5879: real time    0.5934

 eigenvalue-minimisations  :    44
 total energy-change (2. order) :-0.1744309E-03  (-0.9080085E-06)
 number of electron       9.9999999 magnetization       0.0000000
 augmentation part        0.5436605 magnetization       0.0000004

 Broyden mixing:
  rms(total) = 0.21314E-03    rms(broyden)= 0.21310E-03
  rms(prec ) = 0.43758E-03
  weight for this iteration     100.00

 eigenvalues of (default mixing * dielectric matrix)
  average eigenvalue GAMMA=   1.8061
  5.6721  2.5522  2.5522  1.7403  1.7403  1.1730  1.1730  0.9824  0.8291  0.8291
  0.6236

 Free energy of the ion-electron system (eV)
  ---------------------------------------------------
  alpha Z        PSCENC =         0.15469953
  Ewald energy   TEWEN  =        99.29223935
  -Hartree energ DENC   =      -583.05403656
  -exchange      EXHF   =         0.00000000
  -V(xc)+E(xc)   XCENC  =        32.74011178
  PAW double counting   =      1018.83129833    -1012.81883167
  entropy T*S    EENTRO =        -0.00000000
  eigenvalues    EBANDS =      -149.56648154
  atomic energy  EATOM  =       579.50312721
  Solvation  Ediel_sol  =         0.00000000
  ---------------------------------------------------
  free energy    TOTEN  =       -14.91787357 eV

  energy without entropy =      -14.91787357  energy(sigma->0) =      -14.91787357


--------------------------------------------------------------------------------------------------------




--------------------------------------- Iteration      1(  17)  ---------------------------------------


    POTLOK:  cpu time    0.3569: real time    0.3599
    SETDIJ:  cpu time    0.0080: real time    0.0078
    EDDIAG:  cpu time    0.0360: real time    0.0367
  RMM-DIIS:  cpu time    0.1240: real time    0.1256
    ORTHCH:  cpu time    0.0010: real time    0.0012
       DOS:  cpu time    0.0010: real time    0.0003
    CHARGE:  cpu time    0.0330: real time    0.0346
    MIXING:  cpu time    0.0110: real time    0.0106
    --------------------------------------------
      LOOP:  cpu time    0.5709: real time    0.5767

 eigenvalue-minimisations  :    40
 total energy-change (2. order) :-0.6037699E-04  (-0.2973412E-06)
 number of electron       9.9999999 magnetization       0.0000000
 augmentation part        0.5436401 magnetization      -0.0000027

 Broyden mixing:
  rms(total) = 0.23037E-03    rms(broyden)= 0.23032E-03
  rms(prec ) = 0.35335E-03
  weight for this iteration     100.00

 eigenvalues of (default mixing * dielectric matrix)
  average eigenvalue GAMMA=   1.7878
  6.0816  2.6406  2.5757  1.6524  1.6524  1.5942  1.2933  0.9768  0.8263  0.8263
  0.7119  0.6219

 Free energy of the ion-electron system (eV)
  ---------------------------------------------------
  alpha Z        PSCENC =         0.15469953
  Ewald energy   TEWEN  =        99.29223935
  -Hartree energ DENC   =      -583.04955702
  -exchange      EXHF   =         0.00000000
  -V(xc)+E(xc)   XCENC  =        32.73975249
  PAW double counting   =      1018.79972230    -1012.78725195
  entropy T*S    EENTRO =        -0.00000000
  eigenvalues    EBANDS =      -149.57066585
  atomic energy  EATOM  =       579.50312721
  Solvation  Ediel_sol  =         0.00000000
  ---------------------------------------------------
  free energy    TOTEN  =       -14.91793394 eV

  energy without entropy =      -14.91793394  energy(sigma->0) =      -14.91793394


--------------------------------------------------------------------------------------------------------




--------------------------------------- Iteration      1(  18)  ---------------------------------------


    POTLOK:  cpu time    0.3559: real time    0.3600
    SETDIJ:  cpu time    0.0080: real time    0.0078
    EDDIAG:  cpu time    0.0350: real time    0.0366
  RMM-DIIS:  cpu time    0.1260: real time    0.1262
    ORTHCH:  cpu time    0.0020: real time    0.0012
       DOS:  cpu time    0.0000: real time    0.0003
    CHARGE:  cpu time    0.0350: real time    0.0355
    MIXING:  cpu time    0.0100: real time    0.0107
    --------------------------------------------
      LOOP:  cpu time    0.5719: real time    0.5783

 eigenvalue-minimisations  :    40
 total energy-change (2. order) :-0.4274857E-04  (-0.1458855E-06)
 number of electron       9.9999999 magnetization      -0.0000000
 augmentation part        0.5436479 magnetization       0.0000026

 Broyden mixing:
  rms(total) = 0.12984E-03    rms(broyden)= 0.12980E-03
  rms(prec ) = 0.21162E-03
  weight for this iteration     100.00

 eigenvalues of (default mixing * dielectric matrix)
  average eigenvalue GAMMA=   1.8768
  6.5060  3.0990  2.4650  2.3224  2.3224  1.4979  1.2288  0.9733  0.9396  0.9396
  0.8216  0.6262  0.6565

 Free energy of the ion-electron system (eV)
  ---------------------------------------------------
  alpha Z        PSCENC =         0.15469953
  Ewald energy   TEWEN  =        99.29223935
  -Hartree energ DENC   =      -583.04575143
  -exchange      EXHF   =         0.00000000
  -V(xc)+E(xc)   XCENC  =        32.73940302
  PAW double counting   =      1018.79851264    -1012.78599169
  entropy T*S    EENTRO =        -0.00000000
  eigenvalues    EBANDS =      -149.57421534
  atomic energy  EATOM  =       579.50312721
  Solvation  Ediel_sol  =         0.00000000
  ---------------------------------------------------
  free energy    TOTEN  =       -14.91797669 eV

  energy without entropy =      -14.91797669  energy(sigma->0) =      -14.91797669


--------------------------------------------------------------------------------------------------------




--------------------------------------- Iteration      1(  19)  ---------------------------------------


    POTLOK:  cpu time    0.3569: real time    0.3603
    SETDIJ:  cpu time    0.0070: real time    0.0079
    EDDIAG:  cpu time    0.0370: real time    0.0367
  RMM-DIIS:  cpu time    0.1270: real time    0.1265
    ORTHCH:  cpu time    0.0010: real time    0.0012
       DOS:  cpu time    0.0000: real time    0.0004
    CHARGE:  cpu time    0.0340: real time    0.0346
    MIXING:  cpu time    0.0110: real time    0.0110
    --------------------------------------------
      LOOP:  cpu time    0.5729: real time    0.5786

 eigenvalue-minimisations  :    40
 total energy-change (2. order) :-0.2447710E-04  (-0.1106207E-06)
 number of electron       9.9999999 magnetization      -0.0000000
 augmentation part        0.5436552 magnetization      -0.0000008

 Broyden mixing:
  rms(total) = 0.80610E-04    rms(broyden)= 0.80510E-04
  rms(prec ) = 0.12187E-03
  weight for this iteration     100.00

 eigenvalues of (default mixing * dielectric matrix)
  average eigenvalue GAMMA=   1.9198
  7.0758  4.1294  2.5514  2.5514  2.0834  1.3414  1.3414  1.1438  0.9890  0.8446
  0.8446  0.6769  0.6769  0.6272

 Free energy of the ion-electron system (eV)
  ---------------------------------------------------
  alpha Z        PSCENC =         0.15469953
  Ewald energy   TEWEN  =        99.29223935
  -Hartree energ DENC   =      -583.04477094
  -exchange      EXHF   =         0.00000000
  -V(xc)+E(xc)   XCENC  =        32.73924181
  PAW double counting   =      1018.80019927    -1012.78764530
  entropy T*S    EENTRO =        -0.00000000
  eigenvalues    EBANDS =      -149.57509209
  atomic energy  EATOM  =       579.50312721
  Solvation  Ediel_sol  =         0.00000000
  ---------------------------------------------------
  free energy    TOTEN  =       -14.91800117 eV

  energy without entropy =      -14.91800117  energy(sigma->0) =      -14.91800117


--------------------------------------------------------------------------------------------------------




--------------------------------------- Iteration      1(  20)  ---------------------------------------


    POTLOK:  cpu time    0.3549: real time    0.3601
    SETDIJ:  cpu time    0.0080: real time    0.0079
    EDDIAG:  cpu time    0.0370: real time    0.0367
  RMM-DIIS:  cpu time    0.1190: real time    0.1202
    ORTHCH:  cpu time    0.0010: real time    0.0012
       DOS:  cpu time    0.0010: real time    0.0003
    CHARGE:  cpu time    0.0340: real time    0.0352
    MIXING:  cpu time    0.0120: real time    0.0113
    --------------------------------------------
      LOOP:  cpu time    0.5669: real time    0.5729

 eigenvalue-minimisations  :    38
 total energy-change (2. order) :-0.4745209E-05  (-0.1733278E-07)
 number of electron       9.9999999 magnetization       0.0000000
 augmentation part        0.5436553 magnetization       0.0000004

 Broyden mixing:
  rms(total) = 0.94750E-04    rms(broyden)= 0.94730E-04
  rms(prec ) = 0.11982E-03
  weight for this iteration     100.00

 eigenvalues of (default mixing * dielectric matrix)
  average eigenvalue GAMMA=   1.9337
  7.3009  4.4704  2.4487  2.4487  2.3658  1.6137  1.3569  1.3569  1.0786  0.9059
  0.9059  0.8340  0.6597  0.6297  0.6297

 Free energy of the ion-electron system (eV)
  ---------------------------------------------------
  alpha Z        PSCENC =         0.15469953
  Ewald energy   TEWEN  =        99.29223935
  -Hartree energ DENC   =      -583.04635872
  -exchange      EXHF   =         0.00000000
  -V(xc)+E(xc)   XCENC  =        32.73930273
  PAW double counting   =      1018.80595556    -1012.79340696
  entropy T*S    EENTRO =        -0.00000000
  eigenvalues    EBANDS =      -149.57356461
  atomic energy  EATOM  =       579.50312721
  Solvation  Ediel_sol  =         0.00000000
  ---------------------------------------------------
  free energy    TOTEN  =       -14.91800591 eV

  energy without entropy =      -14.91800591  energy(sigma->0) =      -14.91800591


--------------------------------------------------------------------------------------------------------




--------------------------------------- Iteration      1(  21)  ---------------------------------------


    POTLOK:  cpu time    0.3559: real time    0.3600
    SETDIJ:  cpu time    0.0070: real time    0.0078
    EDDIAG:  cpu time    0.0360: real time    0.0367
  RMM-DIIS:  cpu time    0.1200: real time    0.1197
    ORTHCH:  cpu time    0.0010: real time    0.0012
       DOS:  cpu time    0.0010: real time    0.0004
    CHARGE:  cpu time    0.0350: real time    0.0352
    MIXING:  cpu time    0.0100: real time    0.0110
    --------------------------------------------
      LOOP:  cpu time    0.5669: real time    0.5720

 eigenvalue-minimisations  :    38
 total energy-change (2. order) :-0.9081219E-05  (-0.3785666E-07)
 number of electron       9.9999999 magnetization       0.0000000
 augmentation part        0.5436443 magnetization       0.0000002

 Broyden mixing:
  rms(total) = 0.46366E-04    rms(broyden)= 0.46347E-04
  rms(prec ) = 0.56359E-04
  weight for this iteration     100.00

 eigenvalues of (default mixing * dielectric matrix)
  average eigenvalue GAMMA=   2.0404
  7.9465  5.3205  3.0128  2.6375  2.4487  2.0425  1.3631  1.3631  1.1104  0.9822
  0.8565  0.8565  0.8129  0.6830  0.6249  0.5858

 Free energy of the ion-electron system (eV)
  ---------------------------------------------------
  alpha Z        PSCENC =         0.15469953
  Ewald energy   TEWEN  =        99.29223935
  -Hartree energ DENC   =      -583.04934695
  -exchange      EXHF   =         0.00000000
  -V(xc)+E(xc)   XCENC  =        32.73944223
  PAW double counting   =      1018.78438274    -1012.77182463
  entropy T*S    EENTRO =        -0.00000000
  eigenvalues    EBANDS =      -149.57073447
  atomic energy  EATOM  =       579.50312721
  Solvation  Ediel_sol  =         0.00000000
  ---------------------------------------------------
  free energy    TOTEN  =       -14.91801499 eV

  energy without entropy =      -14.91801499  energy(sigma->0) =      -14.91801499


--------------------------------------------------------------------------------------------------------




--------------------------------------- Iteration      1(  22)  ---------------------------------------


    POTLOK:  cpu time    0.3569: real time    0.3610
    SETDIJ:  cpu time    0.0080: real time    0.0078
    EDDIAG:  cpu time    0.0360: real time    0.0366
  RMM-DIIS:  cpu time    0.1180: real time    0.1184
    ORTHCH:  cpu time    0.0010: real time    0.0012
       DOS:  cpu time    0.0000: real time    0.0004
    CHARGE:  cpu time    0.0350: real time    0.0351
    MIXING:  cpu time    0.0120: real time    0.0115
    --------------------------------------------
      LOOP:  cpu time    0.5659: real time    0.5721

 eigenvalue-minimisations  :    36
 total energy-change (2. order) :-0.2475897E-05  (-0.2225645E-07)
 number of electron       9.9999999 magnetization       0.0000000
 augmentation part        0.5436502 magnetization      -0.0000001

 Broyden mixing:
  rms(total) = 0.20429E-04    rms(broyden)= 0.20405E-04
  rms(prec ) = 0.25928E-04
  weight for this iteration     100.00

 eigenvalues of (default mixing * dielectric matrix)
  average eigenvalue GAMMA=   2.0221
  8.4581  5.6192  3.2664  2.5049  2.2166  2.2166  1.3571  1.3571  1.1952  1.0533
  0.8651  0.8651  0.8398  0.7322  0.6109  0.6109  0.6066

 Free energy of the ion-electron system (eV)
  ---------------------------------------------------
  alpha Z        PSCENC =         0.15469953
  Ewald energy   TEWEN  =        99.29223935
  -Hartree energ DENC   =      -583.04887607
  -exchange      EXHF   =         0.00000000
  -V(xc)+E(xc)   XCENC  =        32.73940562
  PAW double counting   =      1018.78544088    -1012.77287337
  entropy T*S    EENTRO =        -0.00000000
  eigenvalues    EBANDS =      -149.57118063
  atomic energy  EATOM  =       579.50312721
  Solvation  Ediel_sol  =         0.00000000
  ---------------------------------------------------
  free energy    TOTEN  =       -14.91801747 eV

  energy without entropy =      -14.91801747  energy(sigma->0) =      -14.91801747


--------------------------------------------------------------------------------------------------------




--------------------------------------- Iteration      1(  23)  ---------------------------------------


    POTLOK:  cpu time    0.3559: real time    0.3604
    SETDIJ:  cpu time    0.0080: real time    0.0079
    EDDIAG:  cpu time    0.0360: real time    0.0367
  RMM-DIIS:  cpu time    0.1200: real time    0.1205
    ORTHCH:  cpu time    0.0020: real time    0.0012
       DOS:  cpu time    0.0000: real time    0.0003
    --------------------------------------------
      LOOP:  cpu time    0.5219: real time    0.5268

 eigenvalue-minimisations  :    37
 total energy-change (2. order) :-0.4148220E-06  (-0.5562367E-08)
 number of electron       9.9999999 magnetization       0.0000000
 augmentation part        0.5436502 magnetization      -0.0000001

 Free energy of the ion-electron system (eV)
  ---------------------------------------------------
  alpha Z        PSCENC =         0.15469953
  Ewald energy   TEWEN  =        99.29223935
  -Hartree energ DENC   =      -583.04840724
  -exchange      EXHF   =         0.00000000
  -V(xc)+E(xc)   XCENC  =        32.73937752
  PAW double counting   =      1018.78782862    -1012.77526244
  entropy T*S    EENTRO =        -0.00000000
  eigenvalues    EBANDS =      -149.57162043
  atomic energy  EATOM  =       579.50312721
  Solvation  Ediel_sol  =         0.00000000
  ---------------------------------------------------
  free energy    TOTEN  =       -14.91801789 eV

  energy without entropy =      -14.91801789  energy(sigma->0) =      -14.91801789


--------------------------------------------------------------------------------------------------------




 average (electrostatic) potential at core
  the test charge radii are     0.6768  0.6557
  (the norm of the test charge is              1.0000)
       1-128.4393       2-126.7128
 
 
 
 E-fermi :  -8.5743     XC(G=0):  -0.6462     alpha+bet : -0.2072


 spin component 1

 k-point     1 :       0.0000    0.0000    0.0000
  band No.  band energies     occupation 
      1     -28.9217      1.00000
      2     -13.9478      1.00000
      3     -11.5151      1.00000
      4     -11.5151      1.00000
      5      -8.8862      1.00000
      6      -1.9733      0.00000
      7      -1.9720      0.00000
      8      -0.1790      0.00000
      9       0.8677      0.00000
     10       1.0320      0.00000
     11       1.5046      0.00000
     12       1.6547      0.00000

 spin component 2

 k-point     1 :       0.0000    0.0000    0.0000
  band No.  band energies     occupation 
      1     -28.9217      1.00000
      2     -13.9478      1.00000
      3     -11.5151      1.00000
      4     -11.5151      1.00000
      5      -8.8862      1.00000
      6      -1.9733      0.00000
      7      -1.9720      0.00000
      8      -0.1791      0.00000
      9       0.8675      0.00000
     10       1.0318      0.00000
     11       1.5045      0.00000
     12       1.6548      0.00000


--------------------------------------------------------------------------------------------------------


 soft charge-density along one line, spin component           1
         0         1         2         3         4         5         6         7         8         9
 total charge-density along one line
 
 soft charge-density along one line, spin component           2
         0         1         2         3         4         5         6         7         8         9
 total charge-density along one line
 
 pseudopotential strength for first ion, spin component:           1
 33.628  34.680  38.876  -0.072   0.050  -0.059  -0.086   0.060
 34.680  35.766  40.057  -0.075   0.052  -0.061  -0.089   0.062
 38.876  40.057  31.336  -0.006   0.004  -0.005  -0.007   0.005
 -0.072  -0.075  -0.006  -6.930   0.037  -0.043  -7.795   0.043
  0.050   0.052   0.004   0.037  -6.902   0.030   0.043  -7.763
 -0.059  -0.061  -0.005  -0.043   0.030  -6.912  -0.051   0.035
 -0.086  -0.089  -0.007  -7.795   0.043  -0.051  -8.754   0.049
  0.060   0.062   0.005   0.043  -7.763   0.035   0.049  -8.716
 -0.071  -0.073  -0.006  -0.051   0.035  -7.775  -0.059   0.041
  0.396   0.409   0.123  -2.219  -0.072   0.085  -3.540  -0.081
 -0.274  -0.283  -0.085  -0.072  -2.273  -0.059  -0.081  -3.601
  0.324   0.336   0.100   0.085  -0.059  -2.253   0.096  -0.066
  0.009   0.009  -0.005  -0.028   0.005  -0.031  -0.033   0.006
 -0.007  -0.008   0.004   0.023  -0.029   0.005   0.028  -0.035
 -0.002  -0.002   0.001   0.016   0.019   0.013   0.020   0.023
 -0.006  -0.006   0.003   0.005  -0.024   0.021   0.006  -0.029
 -0.002  -0.002   0.001   0.027  -0.001  -0.020   0.032  -0.001
  0.108   0.112  -0.055   0.292  -0.055   0.325   0.335  -0.063
 -0.091  -0.095   0.046  -0.247   0.306  -0.055  -0.282   0.350
 -0.027  -0.028   0.014  -0.170  -0.193  -0.139  -0.194  -0.221
 -0.075  -0.078   0.038  -0.055   0.251  -0.225  -0.063   0.287
 -0.022  -0.023   0.011  -0.275   0.011   0.199  -0.315   0.013
 pseudopotential strength for first ion, spin component:           2
 33.628  34.680  38.876  -0.072   0.050  -0.059  -0.086   0.060
 34.680  35.766  40.057  -0.075   0.052  -0.061  -0.089   0.062
 38.876  40.057  31.336  -0.006   0.004  -0.005  -0.007   0.005
 -0.072  -0.075  -0.006  -6.930   0.037  -0.043  -7.795   0.043
  0.050   0.052   0.004   0.037  -6.902   0.030   0.043  -7.763
 -0.059  -0.061  -0.005  -0.043   0.030  -6.912  -0.051   0.035
 -0.086  -0.089  -0.007  -7.795   0.043  -0.051  -8.754   0.049
  0.060   0.062   0.005   0.043  -7.763   0.035   0.049  -8.716
 -0.071  -0.073  -0.006  -0.051   0.035  -7.775  -0.059   0.041
  0.396   0.409   0.123  -2.219  -0.072   0.085  -3.540  -0.081
 -0.274  -0.283  -0.085  -0.072  -2.273  -0.059  -0.081  -3.601
  0.324   0.336   0.100   0.085  -0.059  -2.253   0.096  -0.066
  0.009   0.009  -0.005  -0.028   0.005  -0.031  -0.033   0.006
 -0.007  -0.008   0.004   0.023  -0.029   0.005   0.028  -0.035
 -0.002  -0.002   0.001   0.016   0.019   0.013   0.020   0.023
 -0.006  -0.006   0.003   0.005  -0.024   0.021   0.006  -0.029
 -0.002  -0.002   0.001   0.027  -0.001  -0.020   0.032  -0.001
  0.108   0.112  -0.055   0.292  -0.055   0.325   0.335  -0.063
 -0.091  -0.095   0.046  -0.247   0.306  -0.055  -0.282   0.350
 -0.027  -0.028   0.014  -0.170  -0.193  -0.139  -0.194  -0.221
 -0.075  -0.078   0.038  -0.055   0.251  -0.225  -0.063   0.287
 -0.022  -0.023   0.011  -0.275   0.011   0.199  -0.315   0.013
 total augmentation occupancy for first ion, spin component:           1
 18.618 -17.668   0.017  -8.147   5.634  -6.670   5.259  -3.636   4.305  -0.075   0.052  -0.062  -0.494   0.418   0.124   0.342
-17.668  18.558  -0.024   7.960  -5.504   6.517  -5.219   3.608  -4.272   0.090  -0.062   0.074   0.543  -0.458  -0.137  -0.376
  0.017  -0.024   0.000  -0.007   0.005  -0.006   0.002  -0.001   0.001  -0.000   0.000  -0.000  -0.001   0.001   0.000   0.001
 -8.147   7.960  -0.007   4.636  -1.937   2.294  -2.641   1.707  -2.021   0.046  -0.005   0.006   0.206  -0.174  -0.110  -0.054
  5.634  -5.504   0.005  -1.937   3.173  -1.585   1.707  -1.353   1.397  -0.005   0.041  -0.004  -0.054   0.202  -0.111   0.165
 -6.670   6.517  -0.006   2.294  -1.585   3.710  -2.021   1.397  -1.827   0.006  -0.004   0.043   0.220  -0.054  -0.090  -0.152
  5.259  -5.219   0.002  -2.641   1.707  -2.021   2.308  -1.585   1.877   0.010  -0.009   0.011  -0.046   0.039   0.017   0.024
 -3.636   3.608  -0.001   1.707  -1.353   1.397  -1.585   1.113  -1.298  -0.009   0.003  -0.008   0.024  -0.035   0.006  -0.028
  4.305  -4.272   0.001  -2.021   1.397  -1.827   1.877  -1.298   1.553   0.011  -0.008   0.006  -0.043   0.024   0.014   0.029
 -0.075   0.090  -0.000   0.046  -0.005   0.006   0.010  -0.009   0.011   0.003  -0.001   0.001   0.008  -0.006  -0.003  -0.003
  0.052  -0.062   0.000  -0.005   0.041  -0.004  -0.009   0.003  -0.008  -0.001   0.002  -0.001  -0.003   0.006  -0.002   0.005
 -0.062   0.074  -0.000   0.006  -0.004   0.043   0.011  -0.008   0.006   0.001  -0.001   0.002   0.007  -0.003  -0.003  -0.005
 -0.494   0.543  -0.001   0.206  -0.054   0.220  -0.046   0.024  -0.043   0.008  -0.003   0.007   0.035  -0.019  -0.016  -0.018
  0.418  -0.458   0.001  -0.174   0.202  -0.054   0.039  -0.035   0.024  -0.006   0.006  -0.003  -0.019   0.029  -0.003   0.019
  0.124  -0.137   0.000  -0.110  -0.111  -0.090   0.017   0.006   0.014  -0.003  -0.002  -0.003  -0.016  -0.003   0.017  -0.002
  0.342  -0.376   0.001  -0.054   0.165  -0.152   0.024  -0.028   0.029  -0.003   0.005  -0.005  -0.018   0.019  -0.002   0.022
  0.099  -0.109   0.000  -0.172   0.011   0.115   0.022  -0.005  -0.006  -0.004   0.001   0.002  -0.003   0.011   0.003  -0.006
 -0.007   0.009  -0.000   0.003  -0.003   0.003  -0.003   0.002  -0.002   0.000  -0.000   0.000   0.000  -0.000  -0.000  -0.000
  0.006  -0.008   0.000  -0.003   0.002  -0.003   0.002  -0.002   0.002  -0.000   0.000  -0.000  -0.000   0.000   0.000   0.000
  0.002  -0.002   0.000  -0.001   0.001  -0.001   0.001  -0.001   0.001  -0.000   0.000  -0.000  -0.000   0.000  -0.000   0.000
  0.005  -0.006   0.000  -0.003   0.001  -0.002   0.002  -0.001   0.002  -0.000   0.000  -0.000  -0.000   0.000   0.000   0.000
  0.001  -0.002   0.000  -0.000   0.001  -0.001   0.001  -0.000   0.001   0.000   0.000  -0.000  -0.000   0.000   0.000   0.000
 total augmentation occupancy for first ion, spin component:           2
  0.000  -0.000   0.000  -0.000   0.000  -0.000   0.000  -0.000   0.000   0.000  -0.000   0.000   0.000   0.000   0.000  -0.000
 -0.000   0.000   0.000   0.000  -0.000   0.000  -0.000   0.000  -0.000  -0.000   0.000  -0.000  -0.000  -0.000  -0.000   0.000
  0.000   0.000  -0.000  -0.000  -0.000   0.000   0.000  -0.000   0.000   0.000  -0.000   0.000   0.000  -0.000   0.000  -0.000
 -0.000   0.000  -0.000  -0.000   0.000  -0.000   0.000  -0.000  -0.000  -0.000   0.000   0.000  -0.000  -0.000   0.000  -0.000
  0.000  -0.000  -0.000   0.000  -0.000  -0.000   0.000   0.000  -0.000  -0.000  -0.000   0.000  -0.000  -0.000   0.000   0.000
 -0.000   0.000   0.000  -0.000  -0.000  -0.000   0.000   0.000   0.000  -0.000  -0.000   0.000   0.000   0.000  -0.000   0.000
  0.000  -0.000   0.000   0.000   0.000   0.000  -0.000   0.000  -0.000   0.000  -0.000   0.000   0.000   0.000  -0.000   0.000
 -0.000   0.000  -0.000  -0.000   0.000   0.000   0.000  -0.000   0.000  -0.000   0.000   0.000   0.000   0.000  -0.000  -0.000
  0.000  -0.000   0.000  -0.000  -0.000   0.000  -0.000   0.000   0.000   0.000  -0.000   0.000  -0.000  -0.000   0.000  -0.000
  0.000  -0.000   0.000  -0.000  -0.000  -0.000   0.000  -0.000   0.000   0.000  -0.000  -0.000  -0.000  -0.000   0.000  -0.000
 -0.000   0.000  -0.000   0.000  -0.000  -0.000  -0.000   0.000  -0.000  -0.000  -0.000  -0.000  -0.000  -0.000   0.000   0.000
  0.000  -0.000   0.000   0.000   0.000   0.000   0.000   0.000   0.000  -0.000  -0.000   0.000   0.000   0.000  -0.000   0.000
  0.000  -0.000   0.000  -0.000  -0.000   0.000   0.000   0.000  -0.000  -0.000  -0.000   0.000  -0.000   0.000  -0.000   0.000
  0.000  -0.000  -0.000  -0.000  -0.000   0.000   0.000   0.000  -0.000  -0.000  -0.000   0.000   0.000   0.000   0.000  -0.000
  0.000  -0.000   0.000   0.000   0.000  -0.000  -0.000  -0.000   0.000   0.000   0.000  -0.000  -0.000   0.000   0.000   0.000
 -0.000   0.000  -0.000  -0.000   0.000   0.000   0.000  -0.000  -0.000  -0.000   0.000   0.000   0.000  -0.000   0.000  -0.000
  0.000  -0.000   0.000  -0.000  -0.000  -0.000  -0.000   0.000   0.000  -0.000  -0.000   0.000   0.000  -0.000   0.000  -0.000
  0.000  -0.000   0.000  -0.000   0.000  -0.000   0.000  -0.000   0.000  -0.000   0.000  -0.000  -0.000   0.000   0.000   0.000
  0.000  -0.000   0.000  -0.000   0.000  -0.000   0.000  -0.000   0.000  -0.000   0.000  -0.000  -0.000   0.000   0.000   0.000
  0.000  -0.000   0.000  -0.000   0.000  -0.000   0.000  -0.000   0.000  -0.000   0.000  -0.000  -0.000   0.000   0.000   0.000
  0.000  -0.000   0.000  -0.000   0.000  -0.000   0.000  -0.000   0.000  -0.000   0.000   0.000  -0.000   0.000  -0.000   0.000
 -0.000   0.000  -0.000   0.000   0.000  -0.000   0.000  -0.000   0.000   0.000  -0.000   0.000   0.000  -0.000  -0.000   0.000


------------------------ aborting loop because EDIFF is reached ----------------------------------------


    CHARGE:  cpu time    0.0360: real time    0.0362
    FORLOC:  cpu time    0.0090: real time    0.0097
    FORNL :  cpu time    0.0790: real time    0.0790
    STRESS:  cpu time    0.2450: real time    0.2454
    FORCOR:  cpu time    0.3569: real time    0.3569
    FORHAR:  cpu time    0.0420: real time    0.0420
    MIXING:  cpu time    0.0120: real time    0.0114
    OFIELD:  cpu time    0.0000: real time    0.0002

[...]




--------------------------------------- Iteration     12(  20)  ---------------------------------------


    POTLOK:  cpu time    0.3589: real time    0.3631
    SETDIJ:  cpu time    0.0120: real time    0.0123
    EDDIAG:  cpu time    0.0370: real time    0.0367
  RMM-DIIS:  cpu time    0.1780: real time    0.1788
    ORTHCH:  cpu time    0.0010: real time    0.0012
       DOS:  cpu time    0.0000: real time    0.0003
    CHARGE:  cpu time    0.0400: real time    0.0403
    MIXING:  cpu time    0.0110: real time    0.0119
    --------------------------------------------
      LOOP:  cpu time    0.6389: real time    0.6447

 eigenvalue-minimisations  :    50
 total energy-change (2. order) : 0.1045095E-05  (-0.1322709E-05)
 number of electron      10.0000000 magnetization      -0.0000000
 augmentation part        0.6001033 magnetization       0.0000001

 Broyden mixing:
  rms(total) = 0.11533E-01    rms(broyden)= 0.11533E-01
  rms(prec ) = 0.11565E-01
  weight for this iteration     100.00

 eigenvalues of (default mixing * dielectric matrix)
  average eigenvalue GAMMA=   2.1994
 17.6358  3.3763  2.5758  2.5174  2.5174  1.8270  0.1385  1.2734  1.2734  1.3036
  1.0498  1.0498  0.7431  0.7431  0.8639  0.8639  0.7926  0.6221  0.6221

 Free energy of the ion-electron system (eV)
  ---------------------------------------------------
  alpha Z        PSCENC =         1.06591482
  Ewald energy   TEWEN  =       -51.71588285
  -Hartree energ DENC   =      -437.10496462
  -exchange      EXHF   =         0.00000000
  -V(xc)+E(xc)   XCENC  =        33.53937865
  PAW double counting   =      1455.75249527    -1449.81727299
  entropy T*S    EENTRO =        -0.00000000
  eigenvalues    EBANDS =      -145.59694336
  atomic energy  EATOM  =       579.50312721
  Solvation  Ediel_sol  =         0.00000000
  ---------------------------------------------------
  free energy    TOTEN  =       -14.37414787 eV

  energy without entropy =      -14.37414787  energy(sigma->0) =      -14.37414787


--------------------------------------------------------------------------------------------------------




--------------------------------------- Iteration     12(  21)  ---------------------------------------


    POTLOK:  cpu time    0.3579: real time    0.3630
    SETDIJ:  cpu time    0.0130: real time    0.0123
    EDDIAG:  cpu time    0.0360: real time    0.0367
  RMM-DIIS:  cpu time    0.1650: real time    0.1644
    ORTHCH:  cpu time    0.0000: real time    0.0012
       DOS:  cpu time    0.0010: real time    0.0003
    --------------------------------------------
      LOOP:  cpu time    0.5719: real time    0.5779

 eigenvalue-minimisations  :    48
 total energy-change (2. order) :-0.1162180E-06  (-0.5542837E-06)
 number of electron      10.0000000 magnetization      -0.0000000
 augmentation part        0.6001033 magnetization       0.0000001

 Free energy of the ion-electron system (eV)
  ---------------------------------------------------
  alpha Z        PSCENC =         1.06591482
  Ewald energy   TEWEN  =       -51.71588285
  -Hartree energ DENC   =      -437.12617774
  -exchange      EXHF   =         0.00000000
  -V(xc)+E(xc)   XCENC  =        33.54070366
  PAW double counting   =      1452.25654711    -1446.32107236
  entropy T*S    EENTRO =        -0.00000000
  eigenvalues    EBANDS =      -145.57730783
  atomic energy  EATOM  =       579.50312721
  Solvation  Ediel_sol  =         0.00000000
  ---------------------------------------------------
  free energy    TOTEN  =       -14.37414798 eV

  energy without entropy =      -14.37414798  energy(sigma->0) =      -14.37414798


--------------------------------------------------------------------------------------------------------




 average (electrostatic) potential at core
  the test charge radii are     0.6768  0.6557
  (the norm of the test charge is              1.0000)
       1-127.7985       2-125.3379
 
 
 
 E-fermi :  -7.4905     XC(G=0):  -3.2462     alpha+bet : -1.4275


 spin component 1

 k-point     1 :       0.0000    0.0000    0.0000
  band No.  band energies     occupation 
      1     -29.3633      1.00000
      2     -12.8451      1.00000
      3     -11.4358      1.00000
      4     -11.4017      1.00000
      5      -7.7427      1.00000
      6       0.0932      0.00000
      7       0.1399      0.00000
      8       0.3467      0.00000
      9       4.0839      0.00000
     10       4.4734      0.00000
     11       5.6311      0.00000
     12       6.0416      0.00000

 spin component 2

 k-point     1 :       0.0000    0.0000    0.0000
  band No.  band energies     occupation 
      1     -29.3633      1.00000
      2     -12.8451      1.00000
      3     -11.4358      1.00000
      4     -11.4017      1.00000
      5      -7.7427      1.00000
      6       0.0932      0.00000
      7       0.1399      0.00000
      8       0.3467      0.00000
      9       4.0839      0.00000
     10       4.4734      0.00000
     11       5.6311      0.00000
     12       6.0416      0.00000


--------------------------------------------------------------------------------------------------------


 soft charge-density along one line, spin component           1
         0         1         2         3         4         5         6         7         8         9
 total charge-density along one line
 
 soft charge-density along one line, spin component           2
         0         1         2         3         4         5         6         7         8         9
 total charge-density along one line
 
 pseudopotential strength for first ion, spin component:           1
 33.509  34.559  38.611  -0.101   0.070  -0.084  -0.121   0.083
 34.559  35.641  39.784  -0.105   0.072  -0.086  -0.125   0.086
 38.611  39.784  30.712  -0.008   0.005  -0.006  -0.009   0.006
 -0.101  -0.105  -0.008  -6.809   0.062  -0.075  -7.655   0.072
  0.070   0.072   0.005   0.062  -6.764   0.051   0.072  -7.603
 -0.084  -0.086  -0.006  -0.075   0.051  -6.780  -0.087   0.060
 -0.121  -0.125  -0.009  -7.655   0.072  -0.087  -8.591   0.084
  0.083   0.086   0.006   0.072  -7.603   0.060   0.084  -8.530
 -0.100  -0.103  -0.008  -0.087   0.060  -7.622  -0.101   0.069
  0.524   0.542   0.134  -2.444  -0.120   0.143  -3.801  -0.136
 -0.362  -0.375  -0.091  -0.120  -2.531  -0.099  -0.136  -3.900
  0.432   0.447   0.110   0.143  -0.099  -2.499   0.163  -0.112
  0.014   0.014  -0.007  -0.039   0.008  -0.042  -0.046   0.010
 -0.012  -0.012   0.006   0.033  -0.040   0.008   0.039  -0.047
 -0.004  -0.004   0.002   0.022   0.024   0.018   0.026   0.028
 -0.010  -0.010   0.005   0.008  -0.033   0.029   0.010  -0.039
 -0.003  -0.003   0.001   0.035  -0.002  -0.025   0.042  -0.002
  0.177   0.184  -0.085   0.410  -0.096   0.444   0.469  -0.110
 -0.148  -0.154   0.072  -0.344   0.411  -0.096  -0.393   0.470
 -0.043  -0.044   0.021  -0.225  -0.239  -0.185  -0.257  -0.274
 -0.122  -0.127   0.059  -0.096   0.339  -0.307  -0.110   0.388
 -0.034  -0.035   0.016  -0.356   0.019   0.250  -0.408   0.021
 pseudopotential strength for first ion, spin component:           2
 33.509  34.559  38.611  -0.101   0.070  -0.084  -0.121   0.083
 34.559  35.641  39.784  -0.105   0.072  -0.086  -0.125   0.086
 38.611  39.784  30.712  -0.008   0.005  -0.006  -0.009   0.006
 -0.101  -0.105  -0.008  -6.809   0.062  -0.075  -7.655   0.072
  0.070   0.072   0.005   0.062  -6.764   0.051   0.072  -7.603
 -0.084  -0.086  -0.006  -0.075   0.051  -6.780  -0.087   0.060
 -0.121  -0.125  -0.009  -7.655   0.072  -0.087  -8.591   0.084
  0.083   0.086   0.006   0.072  -7.603   0.060   0.084  -8.530
 -0.100  -0.103  -0.008  -0.087   0.060  -7.622  -0.101   0.069
  0.524   0.542   0.134  -2.444  -0.120   0.143  -3.801  -0.136
 -0.362  -0.375  -0.091  -0.120  -2.531  -0.099  -0.136  -3.900
  0.432   0.447   0.110   0.143  -0.099  -2.499   0.163  -0.112
  0.014   0.014  -0.007  -0.039   0.008  -0.042  -0.046   0.010
 -0.012  -0.012   0.006   0.033  -0.040   0.008   0.039  -0.047
 -0.004  -0.004   0.002   0.022   0.024   0.018   0.026   0.028
 -0.010  -0.010   0.005   0.008  -0.033   0.029   0.010  -0.039
 -0.003  -0.003   0.001   0.035  -0.002  -0.025   0.042  -0.002
  0.177   0.184  -0.085   0.410  -0.096   0.444   0.469  -0.110
 -0.148  -0.154   0.072  -0.344   0.411  -0.096  -0.393   0.470
 -0.043  -0.044   0.021  -0.225  -0.239  -0.185  -0.257  -0.274
 -0.122  -0.127   0.059  -0.096   0.339  -0.307  -0.110   0.388
 -0.034  -0.035   0.016  -0.356   0.019   0.250  -0.408   0.021
 total augmentation occupancy for first ion, spin component:           1
 22.467 -20.669   0.006 -11.548   8.037  -9.538   8.879  -6.198   7.341   0.023  -0.016   0.019  -0.316   0.265   0.085   0.219
-20.669  20.779  -0.017  10.995  -7.656   9.083  -8.455   5.905  -6.992   0.007  -0.005   0.006   0.396  -0.333  -0.104  -0.275
  0.006  -0.017   0.000  -0.012   0.008  -0.010   0.001  -0.001   0.001  -0.001   0.000  -0.000  -0.002   0.002   0.001   0.002
-11.548  10.995  -0.012   9.955  -2.282   2.708  -6.131   2.117  -2.511   0.034  -0.002   0.002   0.301  -0.254  -0.216   0.005
  8.037  -7.656   0.008  -2.282   8.297  -1.885   2.114  -4.601   1.748  -0.002   0.032  -0.001   0.004   0.369  -0.299   0.305
 -9.538   9.083  -0.010   2.708  -1.885   8.919  -2.510   1.749  -5.174   0.002  -0.001   0.033   0.368   0.005  -0.178  -0.256
  8.879  -8.455   0.001  -6.131   2.114  -2.510   4.397  -2.068   2.451   0.007  -0.015   0.018  -0.111   0.093   0.094  -0.022
 -6.198   5.905  -0.001   2.117  -4.601   1.749  -2.068   2.901  -1.710  -0.015  -0.004  -0.012  -0.023  -0.155   0.144  -0.128
  7.341  -6.992   0.001  -2.511   1.748  -5.174   2.451  -1.710   3.464   0.018  -0.012   0.000  -0.147  -0.022   0.078   0.102
  0.023   0.007  -0.001   0.034  -0.002   0.002   0.007  -0.015   0.018   0.002  -0.001   0.002   0.008  -0.006  -0.003  -0.004
 -0.016  -0.005   0.000  -0.002   0.032  -0.001  -0.015  -0.004  -0.012  -0.001   0.001  -0.001  -0.004   0.005  -0.000   0.004
  0.019   0.006  -0.000   0.002  -0.001   0.033   0.018  -0.012   0.000   0.002  -0.001   0.001   0.007  -0.004  -0.002  -0.005
 -0.316   0.396  -0.002   0.301   0.004   0.368  -0.111  -0.023  -0.147   0.008  -0.004   0.007   0.044  -0.020  -0.022  -0.021
  0.265  -0.333   0.002  -0.254   0.369   0.005   0.093  -0.155  -0.022  -0.006   0.005  -0.004  -0.020   0.038  -0.006   0.023
  0.085  -0.104   0.001  -0.216  -0.299  -0.178   0.094   0.144   0.078  -0.003  -0.000  -0.002  -0.022  -0.006   0.026  -0.005
  0.219  -0.275   0.002   0.005   0.305  -0.256  -0.022  -0.128   0.102  -0.004   0.004  -0.005  -0.021   0.023  -0.005   0.029
  0.061  -0.077   0.000  -0.372  -0.001   0.309   0.167   0.004  -0.148  -0.003   0.001   0.000  -0.002   0.016   0.004  -0.011
 -0.001   0.003   0.000  -0.002  -0.000  -0.003  -0.002   0.002  -0.001  -0.000   0.000  -0.000  -0.001   0.000   0.000   0.000
  0.001  -0.002  -0.000   0.002  -0.003  -0.000   0.002  -0.000   0.002   0.000  -0.000   0.000   0.000  -0.001  -0.000  -0.000
  0.000  -0.001  -0.000   0.002   0.002   0.001   0.000  -0.002   0.000   0.000  -0.000   0.000   0.000  -0.000  -0.000  -0.000
  0.001  -0.002  -0.000  -0.000  -0.002   0.002   0.002  -0.000   0.001   0.000  -0.000   0.000   0.000  -0.000  -0.000  -0.000
  0.000  -0.000  -0.000   0.003   0.000  -0.002  -0.001  -0.000   0.002   0.000  -0.000   0.000   0.000  -0.000  -0.000   0.000
 total augmentation occupancy for first ion, spin component:           2
 -0.000   0.000  -0.000  -0.000  -0.000  -0.000   0.000   0.000   0.000   0.000   0.000   0.000   0.000  -0.000  -0.000  -0.000
  0.000  -0.000   0.000   0.000   0.000   0.000  -0.000  -0.000  -0.000  -0.000  -0.000  -0.000  -0.000   0.000   0.000   0.000
 -0.000   0.000  -0.000   0.000  -0.000   0.000  -0.000   0.000  -0.000   0.000  -0.000   0.000   0.000  -0.000  -0.000  -0.000
 -0.000   0.000   0.000   0.000   0.000   0.000  -0.000  -0.000  -0.000  -0.000  -0.000  -0.000   0.000  -0.000  -0.000   0.000
 -0.000   0.000  -0.000   0.000  -0.000   0.000  -0.000   0.000  -0.000   0.000   0.000   0.000   0.000  -0.000  -0.000  -0.000
 -0.000   0.000   0.000   0.000   0.000   0.000  -0.000  -0.000  -0.000  -0.000  -0.000  -0.000   0.000  -0.000  -0.000  -0.000
  0.000  -0.000  -0.000  -0.000  -0.000  -0.000   0.000   0.000   0.000   0.000   0.000   0.000  -0.000   0.000   0.000  -0.000
  0.000  -0.000   0.000  -0.000   0.000  -0.000   0.000  -0.000   0.000  -0.000  -0.000  -0.000  -0.000   0.000   0.000   0.000
  0.000  -0.000  -0.000  -0.000  -0.000  -0.000   0.000   0.000   0.000   0.000   0.000   0.000  -0.000   0.000   0.000   0.000
  0.000  -0.000   0.000  -0.000   0.000  -0.000   0.000  -0.000   0.000  -0.000  -0.000  -0.000  -0.000   0.000   0.000   0.000
  0.000  -0.000  -0.000  -0.000   0.000  -0.000   0.000  -0.000   0.000  -0.000   0.000  -0.000  -0.000   0.000   0.000   0.000
  0.000  -0.000   0.000  -0.000   0.000  -0.000   0.000  -0.000   0.000  -0.000  -0.000  -0.000  -0.000   0.000   0.000   0.000
  0.000  -0.000   0.000   0.000   0.000   0.000  -0.000  -0.000  -0.000  -0.000  -0.000  -0.000  -0.000   0.000   0.000   0.000
 -0.000   0.000  -0.000  -0.000  -0.000  -0.000   0.000   0.000   0.000   0.000   0.000   0.000   0.000  -0.000  -0.000  -0.000
 -0.000   0.000  -0.000  -0.000  -0.000  -0.000   0.000   0.000   0.000   0.000   0.000   0.000   0.000  -0.000  -0.000  -0.000
 -0.000   0.000  -0.000   0.000  -0.000  -0.000  -0.000   0.000   0.000   0.000   0.000   0.000   0.000  -0.000  -0.000  -0.000
 -0.000   0.000  -0.000  -0.000  -0.000   0.000   0.000   0.000  -0.000   0.000   0.000  -0.000  -0.000  -0.000   0.000   0.000
  0.000  -0.000  -0.000  -0.000  -0.000  -0.000   0.000   0.000   0.000   0.000   0.000   0.000  -0.000   0.000   0.000   0.000
  0.000   0.000  -0.000   0.000   0.000   0.000  -0.000  -0.000  -0.000  -0.000  -0.000  -0.000  -0.000  -0.000   0.000  -0.000
 -0.000   0.000   0.000   0.000  -0.000   0.000  -0.000  -0.000  -0.000  -0.000  -0.000  -0.000   0.000  -0.000  -0.000  -0.000
 -0.000   0.000   0.000   0.000   0.000   0.000  -0.000  -0.000  -0.000  -0.000  -0.000  -0.000  -0.000  -0.000   0.000  -0.000
 -0.000   0.000   0.000   0.000   0.000  -0.000  -0.000  -0.000   0.000   0.000  -0.000  -0.000  -0.000  -0.000  -0.000   0.000


------------------------ aborting loop because EDIFF is reached ----------------------------------------


    CHARGE:  cpu time    0.0410: real time    0.0406
    FORLOC:  cpu time    0.0080: real time    0.0079
    FORNL :  cpu time    0.1570: real time    0.1571
    STRESS:  cpu time    0.4619: real time    0.4625
    FORCOR:  cpu time    0.3479: real time    0.3480
    FORHAR:  cpu time    0.0400: real time    0.0405
    MIXING:  cpu time    0.0110: real time    0.0121
    OFIELD:  cpu time    0.0010: real time    0.0003

 ---------------------------------------------------------------------------------------------

         DFTD3 V3.0 Rev 1        
 Edisp (eV)   -0.01587

 E6    (eV) :    -0.0135
 E8    (eV) :    -0.0024
 % E8        : 15.13
    FORVDW:  cpu time    0.0150: real time    0.0163

  FORCE on cell =-STRESS in cart. coord.  units (eV):
  Direction    XX          YY          ZZ          XY          YZ          ZX
  --------------------------------------------------------------------------------------
  Alpha Z     1.06591     1.06591     1.06591
  Ewald       0.23765    51.46977  -103.42338   110.08050  -108.20700   -89.26297
  Hartree   165.73052   182.02769    89.35286    24.16722   -33.90357   -28.05741
  E(xc)     -46.48571   -46.36463   -46.55968     0.31118    -0.26304    -0.21715
  Local    -389.07205  -452.59186  -211.12434  -123.77326   133.39823   110.14007
  n-local    56.64621    56.87888    56.51953     0.61851    -0.53353    -0.44451
  augment    18.33316    18.41001    18.23441     0.17461    -0.17023    -0.14175
  Kinetic   198.45860   196.39897   199.49552    -5.35581     4.45610     3.65909
  Fock        0.00000     0.00000     0.00000     0.00000     0.00000     0.00000
  vdW        -0.03898    -0.04022    -0.01682     0.00679     0.00060     0.00053
  -------------------------------------------------------------------------------------
  Total       4.87532     7.25453     3.54403     6.22973    -5.22244    -4.32410
  in kB      54.74080    81.45499    39.79286    69.94838   -58.63834   -48.55163
  external pressure =       58.66 kB  Pullay stress =        0.00 kB


 VOLUME and BASIS-vectors are now :
 -----------------------------------------------------------------------------
  energy-cutoff  :      520.00
  volume of cell :      142.69
      direct lattice vectors                 reciprocal lattice vectors
     5.183626244  0.714111075 -0.503829286     0.189429172  0.081998928  0.080357314
    -1.814920332  4.464097786 -0.276917889    -0.031823989  0.209149445 -0.030978206
    -2.760660059  0.472439787  6.025711535     0.014376283  0.016467878  0.171250805

  length of vectors
     5.256784151  4.826881848  6.644820751     0.221505154  0.213812783  0.172640397


 FORCES acting on ions
    electron-ion (+dipol)            ewald-force                    non-local-force                 convergence-correction
 -----------------------------------------------------------------------------------------------
   0.138E+03 0.166E+03 -.119E+03   -.173E+03 -.208E+03 0.148E+03   0.264E+02 0.322E+02 -.220E+02   0.998E-02 0.114E-01 -.921E-02
   -.160E+03 -.192E+03 0.137E+03   0.173E+03 0.208E+03 -.148E+03   -.462E+01 -.580E+01 0.370E+01   0.748E-03 0.599E-03 -.768E-03
 -----------------------------------------------------------------------------------------------
   -.218E+02 -.264E+02 0.184E+02   0.000E+00 0.000E+00 0.000E+00   0.218E+02 0.264E+02 -.183E+02   0.107E-01 0.120E-01 -.998E-02
 
 
 POSITION                                       TOTAL-FORCE (eV/Angst)
 -----------------------------------------------------------------------------------
     -0.04189      2.74777      3.26573        -8.812847    -10.635372      7.391054
      0.54200      3.45484      2.77351         8.812847     10.635372     -7.391054
 -----------------------------------------------------------------------------------
    total drift:                                0.001162      0.001347      0.000084


--------------------------------------------------------------------------------------------------------



  FREE ENERGIE OF THE ION-ELECTRON SYSTEM (eV)
  ---------------------------------------------------
  free  energy   TOTEN  =       -14.39002041 eV

  energy  without entropy=      -14.39002041  energy(sigma->0) =      -14.39002041
 
 d Force = 0.1433907E+01[ 0.244E+01, 0.426E+00]  d Energy =-0.5526036E+00 0.199E+01
 d Force = 0.4540316E+02[ 0.481E+02, 0.427E+02]  d Ewald  = 0.9759791E+02-0.522E+02


--------------------------------------------------------------------------------------------------------


    POTLOK:  cpu time    0.3659: real time    0.3740


--------------------------------------------------------------------------------------------------------


 stress matrix after NEB project (eV)
      4.87532      6.22973     -4.32410
      6.22973      7.25453     -5.22244
     -4.32410     -5.22244      3.54403
  FORCES: max atom, RMS    15.665411   15.665411
  FORCE total and by dimension   22.154236   10.635372
  Stress total and by dimension   16.078544    7.254532


--------------------------------------------------------------------------------------------------------


    WAVPRE:  cpu time    0.0260: real time    0.0311
    FEWALD:  cpu time    0.0010: real time    0.0003
    GENKIN:  cpu time    0.0030: real time    0.0041

 real space projection operators:
  total allocation   :    1904223.13 KBytes
  max/ min on nodes  :     476087.88     476017.89

    ORTHCH:  cpu time    0.5819: real time    0.5813
     LOOP+:  cpu time   18.1652: real time   18.3201


--------------------------------------- Iteration     13(   1)  ---------------------------------------


