 vasp.5.4.4.18Apr17-6-g9f103f2a35 (build May 21 2019 18:55:53) complex          
  
 executed on           IFC19_impi date 2025.08.29  03:13:50
 running on   24 total cores
 distrk:  each k-point on   24 cores,    1 groups
 distr:  one band on NCORES_PER_BAND=   4 cores,    6 groups


--------------------------------------------------------------------------------------------------------


 INCAR:
 POTCAR:    PAW_PBE O_GW_new 19Mar2012            
 POTCAR:    PAW_PBE C_GW_new 19Mar2012            
 POTCAR:    PAW_PBE O_GW_new 19Mar2012            
   SHA256 =  c493eb4e480bc193c6922e0b8c73e7a108f48fca6e73afddd92a880a1c2b3374 O_
   COPYR  = (c) Copyright 19Mar2012 Georg Kresse                                
   COPYR  = This file is part of the software VASP. Any use, copying, and all ot
   COPYR  = If you do not have a valid VASP license, you may not use, copy or di
   VRHFIN =O: s2p4                                                              
   LEXCH  = PE                                                                  
   EATOM  =   432.3788 eV,   31.7789 Ry                                         
                                                                                
   TITEL  = PAW_PBE O_GW_new 19Mar2012                                          
   LULTRA =        F    use ultrasoft PP ?                                      
   IUNSCR =        1    unscreen: 0-lin 1-nonlin 2-no                           
   RPACOR =    0.800    partial core radius                                     
   POMASS =   16.000; ZVAL   =    6.000    mass and valenz                      
   RCORE  =    1.600    outmost cutoff radius                                   
   RWIGS  =    1.600; RWIGS  =    0.847    wigner-seitz radius (au A)           
   ENMAX  =  434.431; ENMIN  =  325.824 eV                                      
   ICORE  =        3    local potential                                         
   LCOR   =        T    correct aug charges                                     
   LPAW   =        T    paw PP                                                  
   EAUG   = 1139.609                                                            
   DEXC   =    0.000                                                            
   RMAX   =    1.629    core radius for proj-oper                               
   RAUG   =    1.300    factor for augmentation sphere                          
   RDEP   =    1.652    radius for radial grids                                 
   RDEPT  =    1.200    core radius for aug-charge                              
                                                                                
   Atomic configuration                                                         
    5 entries                                                                   
     n  l   j            E        occ.                                          
     1  0  0.50      -514.6923   2.0000                                         
     2  0  0.50       -23.9615   2.0000                                         
     2  1  0.50        -9.0305   4.0000                                         
     3  2  1.50        -9.5241   0.0000                                         
     4  3  2.50        -9.5241   0.0000                                         
   Description                                                                  
     l       E           TYP  RCUT    TYP  RCUT                                 
     0    -23.9615316     23  1.150                                             
     0    -25.3221142     23  1.150                                             
     0    244.9048680     23  1.300                                             
     1     -9.0304908     23  1.500                                             
     1     -6.9258396     23  1.500                                             
     1    122.4524340     23  1.500                                             
     2     13.6058260     23  1.500                                             
     2    190.4815640     23  1.600                                             
     3     54.4233040     23  1.400                                             
  local pseudopotential read in
  partial core-charges read in
  partial kinetic energy density read in
  kinetic energy density of atom read in
  atomic valenz-charges read in
  non local Contribution for L=           0  read in
    real space projection operators read in
  non local Contribution for L=           0  read in
    real space projection operators read in
  non local Contribution for L=           0  read in
    real space projection operators read in
  non local Contribution for L=           1  read in
    real space projection operators read in
  non local Contribution for L=           1  read in
    real space projection operators read in
  non local Contribution for L=           1  read in
    real space projection operators read in
  non local Contribution for L=           2  read in
    real space projection operators read in
  non local Contribution for L=           2  read in
    real space projection operators read in
    PAW grid and wavefunctions read in
 
   number of l-projection  operators is LMAX  =           8
   number of lm-projection operators is LMMAX =          22
 
 POTCAR:    PAW_PBE C_GW_new 19Mar2012            
   SHA256 =  fd3f4f69ac51e962ca076bfc50bb68de54373009f6c2495f58fe5f585428a9ad C_
   COPYR  = (c) Copyright 19Mar2012 Georg Kresse                                
   COPYR  = This file is part of the software VASP. Any use, copying, and all ot
   COPYR  = If you do not have a valid VASP license, you may not use, copy or di
   VRHFIN =C: s2p2                                                              
   LEXCH  = PE                                                                  
   EATOM  =   147.1560 eV,   10.8157 Ry                                         
                                                                                
   TITEL  = PAW_PBE C_GW_new 19Mar2012                                          
   LULTRA =        F    use ultrasoft PP ?                                      
   IUNSCR =        1    unscreen: 0-lin 1-nonlin 2-no                           
   RPACOR =    0.800    partial core radius                                     
   POMASS =   12.011; ZVAL   =    4.000    mass and valenz                      
   RCORE  =    1.600    outmost cutoff radius                                   
   RWIGS  =    1.600; RWIGS  =    0.847    wigner-seitz radius (au A)           
   ENMAX  =  413.992; ENMIN  =  310.494 eV                                      
   ICORE  =        3    local potential                                         
   LCOR   =        T    correct aug charges                                     
   LPAW   =        T    paw PP                                                  
   EAUG   = 1213.930                                                            
   DEXC   =    0.000                                                            
   RMAX   =    1.630    core radius for proj-oper                               
   RAUG   =    1.300    factor for augmentation sphere                          
   RDEP   =    1.601    radius for radial grids                                 
   RDEPT  =    1.200    core radius for aug-charge                              
                                                                                
   Atomic configuration                                                         
    5 entries                                                                   
     n  l   j            E        occ.                                          
     1  0  0.50      -273.3789   2.0000                                         
     2  0  0.50       -13.7508   2.0000                                         
     2  1  0.50        -5.2854   2.0000                                         
     3  2  1.50        -5.4423   0.0000                                         
     4  3  2.50        -5.4423   0.0000                                         
   Description                                                                  
     l       E           TYP  RCUT    TYP  RCUT                                 
     0    -13.7508457     23  1.200                                             
     0     -7.5219285     23  1.200                                             
     0    272.1165200     23  1.300                                             
     1     -5.2854382     23  1.500                                             
     1    108.8466080     23  1.500                                             
     2     27.2116520     23  1.500                                             
     2    190.4815640     23  1.600                                             
     3     54.4233040     23  1.400                                             
  local pseudopotential read in
  partial core-charges read in
  partial kinetic energy density read in
  kinetic energy density of atom read in
  atomic valenz-charges read in
  non local Contribution for L=           0  read in
    real space projection operators read in
  non local Contribution for L=           0  read in
    real space projection operators read in
  non local Contribution for L=           0  read in
    real space projection operators read in
  non local Contribution for L=           1  read in
    real space projection operators read in
  non local Contribution for L=           1  read in
    real space projection operators read in
  non local Contribution for L=           2  read in
    real space projection operators read in
  non local Contribution for L=           2  read in
    real space projection operators read in
    PAW grid and wavefunctions read in
 
   number of l-projection  operators is LMAX  =           7
   number of lm-projection operators is LMMAX =          19
 

 ----------------------------------------------------------------------------- 
|                                                                             |
|  ADVICE TO THIS USER RUNNING 'VASP/VAMP'   (HEAR YOUR MASTER'S VOICE ...):  |
|                                                                             |
|      You have a (more or less) 'small supercell' and for smaller cells      |
|      it is recommended  to use the reciprocal-space projection scheme!      |
|      The real space optimization is not  efficient for small cells and it   |
|      is also less accurate ...                                              |
|      Therefore set LREAL=.FALSE. in the  INCAR file                         |
|                                                                             |
 ----------------------------------------------------------------------------- 

 Optimization of the real space projectors (new method)

 maximal supplied QI-value         = 23.62
 optimisation between [QCUT,QGAM] = [ 11.57, 23.15] = [ 37.52,150.06] Ry 
 Optimized for a Real-space Cutoff    1.53 Angstroem

   l    n(q)    QCUT    max X(q) W(low)/X(q) W(high)/X(q)  e(spline) 
   0     11    11.575   116.464    0.19E-03    0.50E-03    0.68E-05
   0     11    11.575   116.329    0.18E-03    0.48E-03    0.66E-05
   0     11    11.575     0.942    0.91E-04    0.25E-03    0.30E-05
   1     10    11.575    68.203    0.23E-03    0.52E-03    0.69E-05
   1     10    11.575    60.250    0.22E-03    0.51E-03    0.68E-05
   1     10    11.575     2.381    0.21E-03    0.47E-03    0.62E-05
   2     10    11.575     2.237    0.20E-04    0.44E-04    0.41E-06
   2     10    11.575     2.486    0.52E-04    0.84E-04    0.58E-06
 Optimization of the real space projectors (new method)

 maximal supplied QI-value         = 23.62
 optimisation between [QCUT,QGAM] = [ 11.57, 23.15] = [ 37.52,150.06] Ry 
 Optimized for a Real-space Cutoff    1.40 Angstroem

   l    n(q)    QCUT    max X(q) W(low)/X(q) W(high)/X(q)  e(spline) 
   0     10    11.575   214.472    0.12E-03    0.51E-03    0.36E-05
   0     10    11.575   163.224    0.12E-03    0.51E-03    0.36E-05
   0     10    11.575     0.672    0.22E-03    0.83E-03    0.56E-05
   1      9    11.575     2.978    0.13E-04    0.16E-04    0.12E-06
   1      9    11.575     2.423    0.91E-04    0.11E-03    0.33E-06
   2      9    11.575     2.026    0.29E-04    0.65E-04    0.23E-06
   2      9    11.575     2.119    0.11E-03    0.87E-04    0.33E-06
  PAW_PBE O_GW_new 19Mar2012            :
 energy of atom  1       EATOM= -432.3788
 kinetic energy error for atom=    0.0246 (will be added to EATOM!!)
  PAW_PBE C_GW_new 19Mar2012            :
 energy of atom  2       EATOM= -147.1560
 kinetic energy error for atom=    0.0071 (will be added to EATOM!!)
 
 
 POSCAR: C  O                                    
  positions in direct lattice
  velocities in cartesian coordinates
 exchange correlation table for  LEXCH =        8
   RHO(1)=    0.500       N(1)  =     2000
   RHO(2)=  100.500       N(2)  =     4000

 VTST: version 3.2, (02/03/18)

 CHAIN: initializing optimizer
 
 OPT: Using VASP Conjugate-Gradient optimizer
 CHAIN: Read ICHAIN            0
 
 POSCAR: C  O                                    
  positions in direct lattice
  velocities in cartesian coordinates
 


--------------------------------------------------------------------------------------------------------


 ion  position               nearest neighbor table
   1  0.480  0.475  0.604-
   2  0.609  0.619  0.540-
 

IMPORTANT INFORMATION: All symmetrisations will be switched off!
NOSYMM: (Re-)initialisation of all symmetry stuff for point group C_1.

 
 
 KPOINTS: mof                                     

Automatic generation of k-mesh.
Space group operators:
 irot       det(A)        alpha          n_x          n_y          n_z        tau_x        tau_y        tau_z
    1     1.000000     0.000000     1.000000     0.000000     0.000000     0.000000     0.000000     0.000000
 
 Subroutine IBZKPT returns following result:
 ===========================================
 
 Found      1 irreducible k-points:
 
 Following reciprocal coordinates:
            Coordinates               Weight
  0.000000  0.000000  0.000000      1.000000
 
 Following cartesian coordinates:
            Coordinates               Weight
  0.000000  0.000000  0.000000      1.000000
 


--------------------------------------------------------------------------------------------------------




 Dimension of arrays:
   k-points           NKPTS =      1   k-points in BZ     NKDIM =      1   number of bands    NBANDS=     12
   number of dos      NEDOS =    301   number of ions     NIONS =      2
   non local maximal  LDIM  =      8   non local SUM 2l+1 LMDIM =     22
   total plane-waves  NPLWV = ******
   max r-space proj   IRMAX =   6341   max aug-charges    IRDMAX=   4656
   dimension x,y,z NGX =   224 NGY =  224 NGZ =  224
   dimension x,y,z NGXF=   448 NGYF=  448 NGZF=  448
   support grid    NGXF=   448 NGYF=  448 NGZF=  448
   ions per type =               1   1
   NGX,Y,Z   is equivalent  to a cutoff of  12.41, 12.41, 12.41 a.u.
   NGXF,Y,Z  is equivalent  to a cutoff of  24.83, 24.83, 24.83 a.u.

 SYSTEM =  Co–organic framework                  
 POSCAR =  C  O                                    

 Startparameter for this run:
   NWRITE =      2    write-flag & timer
   PREC   = accura    normal or accurate (medium, high low for compatibility)
   ISTART =      0    job   : 0-new  1-cont  2-samecut
   ICHARG =      2    charge: 1-file 2-atom 10-const
   ISPIN  =      2    spin polarized calculation?
   LNONCOLLINEAR =      F non collinear calculations
   LSORBIT =      F    spin-orbit coupling
   INIWAV =      1    electr: 0-lowe 1-rand  2-diag
   LASPH  =      F    aspherical Exc in radial PAW
   METAGGA=      F    non-selfconsistent MetaGGA calc.

 Electronic Relaxation 1
   ENCUT  =  520.0 eV  38.22 Ry    6.18 a.u.  55.78 55.78 55.78*2*pi/ulx,y,z
   ENINI  =  520.0     initial cutoff
   ENAUG  = 1213.9 eV  augmentation charge cutoff
   NELM   =    100;   NELMIN=  5; NELMDL= -5     # of ELM steps 
   EDIFF  = 0.1E-05   stopping-criterion for ELM
   LREAL  =      T    real-space projection
   NLSPLINE    = F    spline interpolate recip. space projectors
   LCOMPAT=      F    compatible to vasp.4.4
   GGA_COMPAT  = T    GGA compatible to vasp.4.4-vasp.4.6
   LMAXPAW     = -100 max onsite density
   LMAXMIX     =    2 max onsite mixed and CHGCAR
   VOSKOWN=      0    Vosko Wilk Nusair interpolation
   ROPT   =   -0.00025  -0.00025
 Ionic relaxation
   EDIFFG = -.5E-02   stopping-criterion for IOM
   NSW    =   1000    number of steps for IOM
   NBLOCK =      1;   KBLOCK =   1000    inner block; outer block 
   IBRION =      2    ionic relax: 0-MD 1-quasi-New 2-CG
   NFREE  =      1    steps in history (QN), initial steepest desc. (CG)
   ISIF   =      2    stress and relaxation
   IWAVPR =     11    prediction:  0-non 1-charg 2-wave 3-comb
   ISYM   =      0    0-nonsym 1-usesym 2-fastsym
   LCORR  =      T    Harris-Foulkes like correction to forces

   POTIM  = 0.5000    time-step for ionic-motion
   TEIN   =    0.0    initial temperature
   TEBEG  =    0.0;   TEEND  =   0.0 temperature during run
   SMASS  =  -3.00    Nose mass-parameter (am)
   estimated Nose-frequenzy (Omega)   =  0.10E-29 period in steps =****** mass=  -0.206E-25a.u.
   SCALEE = 1.0000    scale energy and forces
   NPACO  =    256;   APACO  = 16.0  distance and # of slots for P.C.
   PSTRESS=    0.0 pullay stress

  Mass of Ions in am
   POMASS =  16.00 12.01
  Ionic Valenz
   ZVAL   =   6.00  4.00
  Atomic Wigner-Seitz radii
   RWIGS  =  -1.00 -1.00
  virtual crystal weights 
   VCA    =   1.00  1.00
   NELECT =      10.0000    total number of electrons
   NUPDOWN=      -1.0000    fix difference up-down

 DOS related values:
   EMIN   =  10.00;   EMAX   =-10.00  energy-range for DOS
   EFERMI =   0.00
   ISMEAR =     0;   SIGMA  =   0.05  broadening in eV -4-tet -1-fermi 0-gaus

 Electronic relaxation 2 (details)
   IALGO  =     38    algorithm
   LDIAG  =      T    sub-space diagonalisation (order eigenvalues)
   LSUBROT=      F    optimize rotation matrix (better conditioning)
   TURBO    =      0    0=normal 1=particle mesh
   IRESTART =      0    0=no restart 2=restart with 2 vectors
   NREBOOT  =      0    no. of reboots
   NMIN     =      0    reboot dimension
   EREF     =   0.00    reference energy to select bands
   IMIX   =      4    mixing-type and parameters
     AMIX     =   0.40;   BMIX     =  1.00
     AMIX_MAG =   1.60;   BMIX_MAG =  1.00
     AMIN     =   0.10
     WC   =   100.;   INIMIX=   1;  MIXPRE=   1;  MAXMIX= -45

 Intra band minimization:
   WEIMIN = 0.0010     energy-eigenvalue tresh-hold
   EBREAK =  0.21E-07  absolut break condition
   DEPER  =   0.30     relativ break condition  

   TIME   =   0.40     timestep for ELM

  volume/ion in A,a.u.               =   13500.00     91102.50
  Fermi-wavevector in a.u.,A,eV,Ry     =   0.117567  0.222170  0.188061  0.013822
  Thomas-Fermi vector in A             =   0.731135
 
 Write flags
   LWAVE        =      F    write WAVECAR
   LDOWNSAMPLE  =      F    k-point downsampling of WAVECAR
   LCHARG       =      T    write CHGCAR
   LVTOT        =      F    write LOCPOT, total local potential
   LVHAR        =      F    write LOCPOT, Hartree potential only
   LELF         =      F    write electronic localiz. function (ELF)
   LORBIT       =      0    0 simple, 1 ext, 2 COOP (PROOUT), +10 PAW based schemes


 Dipole corrections
   LMONO  =      F    monopole corrections only (constant potential shift)
   LDIPOL =      F    correct potential (dipole corrections)
   IDIPOL =      0    1-x, 2-y, 3-z, 4-all directions 
   EPSILON=  1.0000000 bulk dielectric constant

 Exchange correlation treatment:
   GGA     =    --    GGA type
   LEXCH   =     8    internal setting for exchange type
   VOSKOWN=      0    Vosko Wilk Nusair interpolation
   LHFCALC =     F    Hartree Fock is set to
   LHFONE  =     F    Hartree Fock one center treatment
   AEXX    =    0.0000 exact exchange contribution

 Linear response parameters
   LEPSILON=     F    determine dielectric tensor
   LRPA    =     F    only Hartree local field effects (RPA)
   LNABLA  =     F    use nabla operator in PAW spheres
   LVEL    =     F    velocity operator in full k-point grid
   LINTERFAST=   F  fast interpolation
   KINTER  =     0    interpolate to denser k-point grid
   CSHIFT  =0.1000    complex shift for real part using Kramers Kronig
   OMEGAMAX=  -1.0    maximum frequency
   DEG_THRESHOLD= 0.2000000E-02 threshold for treating states as degnerate
   RTIME   =   -0.100 relaxation time in fs
  (WPLASMAI=    0.000 imaginary part of plasma frequency in eV, 0.658/RTIME)
   DFIELD  = 0.0000000 0.0000000 0.0000000 field for delta impulse in time
 
 Orbital magnetization related:
   ORBITALMAG=     F  switch on orbital magnetization
   LCHIMAG   =     F  perturbation theory with respect to B field
   DQ        =  0.001000  dq finite difference perturbation B field
   LLRAUG    =     F  two centre corrections for induced B field



--------------------------------------------------------------------------------------------------------


 conjugate gradient relaxation of ions
 charge density and potential will be updated during run
 spin polarized calculation
 Variant of blocked Davidson
 Davidson routine will perform the subspace rotation
 perform sub-space diagonalisation
    after iterative eigenvector-optimisation
 modified Broyden-mixing scheme, WC =      100.0
 initial mixing is a Kerker type mixing with AMIX =  0.4000 and BMIX =      1.0000
 Hartree-type preconditioning will be used
 using additional bands            7
 real space projection scheme for non local part
 use partial core corrections
 calculate Harris-corrections to forces 
   (improved forces if not selfconsistent)
 use gradient corrections 
 use of overlap-Matrix (Vanderbilt PP)
 Gauss-broadening in eV      SIGMA  =   0.05


--------------------------------------------------------------------------------------------------------


  energy-cutoff  :      520.00
  volume of cell :    27000.00
      direct lattice vectors                 reciprocal lattice vectors
    30.000000000  0.000000000  0.000000000     0.033333333  0.000000000  0.000000000
     0.000000000 30.000000000  0.000000000     0.000000000  0.033333333  0.000000000
     0.000000000  0.000000000 30.000000000     0.000000000  0.000000000  0.033333333

  length of vectors
    30.000000000 30.000000000 30.000000000     0.033333333  0.033333333  0.033333333


 
 k-points in units of 2pi/SCALE and weight: mof                                     
   0.00000000  0.00000000  0.00000000       1.000
 
 k-points in reciprocal lattice and weights: mof                                     
   0.00000000  0.00000000  0.00000000       1.000
 
 position of ions in fractional coordinates (direct lattice) 
   0.47980337  0.47486042  0.60390684
   0.60883563  0.61941158  0.53965116
 
 position of ions in cartesian coordinates  (Angst):
  14.39410113 14.24581257 18.11720517
  18.26506887 18.58234744 16.18953483
 


--------------------------------------------------------------------------------------------------------


 k-point  1 :   0.0000 0.0000 0.0000  plane waves:  727055

 maximum and minimum number of plane-waves per node :    181799   181736

 maximum number of plane-waves:    727055
 maximum index in each direction: 
   IXMAX=   55   IYMAX=   55   IZMAX=   55
   IXMIN=  -55   IYMIN=  -55   IZMIN=  -55


 real space projection operators:
  total allocation   :       1741.91 KBytes
  max/ min on nodes  :        439.75        432.53


 parallel 3D FFT for wavefunctions:
    minimum data exchange during FFTs selected (reduces bandwidth)
 parallel 3D FFT for charge:
    minimum data exchange during FFTs selected (reduces bandwidth)


 total amount of memory used by VASP MPI-rank0   784908. kBytes
=======================================================================

   base      :      30000. kBytes
   nonlr-proj:        750. kBytes
   fftplans  :     211127. kBytes
   grid      :     531349. kBytes
   one-center:         46. kBytes
   wavefun   :      11636. kBytes
 
     INWAV:  cpu time    0.0000: real time    0.0001
 Broyden mixing: mesh for mixing (old mesh)
   NGX =111   NGY =111   NGZ =111
  (NGX  =448   NGY  =448   NGZ  =448)
  gives a total of ****** points

 initial charge density was supplied:
 charge density of overlapping atoms calculated
 number of electron      10.0000000 magnetization       0.0000000
 keeping initial charge density in first step


--------------------------------------------------------------------------------------------------------


 Maximum index for non-local projection operator         1515
 Maximum index for augmentation-charges          319 (set IRDMAX)


--------------------------------------------------------------------------------------------------------


 First call to EWALD:  gamma=   0.059
 Maximum number of real-space cells 3x 3x 3
 Maximum number of reciprocal cells 3x 3x 3

    FEWALD:  cpu time    0.0020: real time    0.0022


--------------------------------------- Iteration      1(   1)  ---------------------------------------


    POTLOK:  cpu time    8.7027: real time    8.7052
    SETDIJ:  cpu time    0.0610: real time    0.0611
     EDDAV:  cpu time    7.9808: real time    7.9907
       DOS:  cpu time    0.0000: real time    0.0006
    --------------------------------------------
      LOOP:  cpu time   16.7445: real time   16.7577

 eigenvalue-minimisations  :    96
 total energy-change (2. order) : 0.6283172E+02  (-0.1286332E+03)
 number of electron      10.0000000 magnetization       0.0000000
 augmentation part       10.0000000 magnetization       0.0000000

 Free energy of the ion-electron system (eV)
  ---------------------------------------------------
  alpha Z        PSCENC =         0.00563328
  Ewald energy   TEWEN  =       -10.68537377
  -Hartree energ DENC   =      -482.11065285
  -exchange      EXHF   =         0.00000000
  -V(xc)+E(xc)   XCENC  =        29.02661077
  PAW double counting   =       463.69512993     -457.43959568
  entropy T*S    EENTRO =        -0.06089022
  eigenvalues    EBANDS =       -59.10227058
  atomic energy  EATOM  =       579.50312721
  Solvation  Ediel_sol  =         0.00000000
  ---------------------------------------------------
  free energy    TOTEN  =        62.83171809 eV

  energy without entropy =       62.89260830  energy(sigma->0) =       62.86216319


--------------------------------------------------------------------------------------------------------




--------------------------------------- Iteration      1(   2)  ---------------------------------------


     EDDAV:  cpu time    6.2411: real time    6.2705
       DOS:  cpu time    0.0000: real time    0.0004
    --------------------------------------------
      LOOP:  cpu time    6.2411: real time    6.2709

 eigenvalue-minimisations  :    72
 total energy-change (2. order) :-0.2602682E+02  (-0.2578462E+02)
 number of electron      10.0000000 magnetization       0.0000000
 augmentation part       10.0000000 magnetization       0.0000000

 Free energy of the ion-electron system (eV)
  ---------------------------------------------------
  alpha Z        PSCENC =         0.00563328
  Ewald energy   TEWEN  =       -10.68537377
  -Hartree energ DENC   =      -482.11065285
  -exchange      EXHF   =         0.00000000
  -V(xc)+E(xc)   XCENC  =        29.02661077
  PAW double counting   =       463.69512993     -457.43959568
  entropy T*S    EENTRO =        -0.00990920
  eigenvalues    EBANDS =       -85.18007182
  atomic energy  EATOM  =       579.50312721
  Solvation  Ediel_sol  =         0.00000000
  ---------------------------------------------------
  free energy    TOTEN  =        36.80489787 eV

  energy without entropy =       36.81480707  energy(sigma->0) =       36.80985247


--------------------------------------------------------------------------------------------------------




--------------------------------------- Iteration      1(   3)  ---------------------------------------


     EDDAV:  cpu time    7.9448: real time    7.9701
       DOS:  cpu time    0.0010: real time    0.0004
    --------------------------------------------
      LOOP:  cpu time    7.9458: real time    7.9706

 eigenvalue-minimisations  :    96
 total energy-change (2. order) :-0.3213899E+02  (-0.3069414E+02)
 number of electron      10.0000000 magnetization       0.0000000
 augmentation part       10.0000000 magnetization       0.0000000

 Free energy of the ion-electron system (eV)
  ---------------------------------------------------
  alpha Z        PSCENC =         0.00563328
  Ewald energy   TEWEN  =       -10.68537377
  -Hartree energ DENC   =      -482.11065285
  -exchange      EXHF   =         0.00000000
  -V(xc)+E(xc)   XCENC  =        29.02661077
  PAW double counting   =       463.69512993     -457.43959568
  entropy T*S    EENTRO =        -0.00000000
  eigenvalues    EBANDS =      -117.32897417
  atomic energy  EATOM  =       579.50312721
  Solvation  Ediel_sol  =         0.00000000
  ---------------------------------------------------
  free energy    TOTEN  =         4.66590472 eV

  energy without entropy =        4.66590472  energy(sigma->0) =        4.66590472


--------------------------------------------------------------------------------------------------------




--------------------------------------- Iteration      1(   4)  ---------------------------------------


     EDDAV:  cpu time    4.5663: real time    4.5810
       DOS:  cpu time    0.0000: real time    0.0004
    --------------------------------------------
      LOOP:  cpu time    4.5663: real time    4.5812

 eigenvalue-minimisations  :    48
 total energy-change (2. order) :-0.1184215E+02  (-0.1184215E+02)
 number of electron      10.0000000 magnetization       0.0000000
 augmentation part       10.0000000 magnetization       0.0000000

 Free energy of the ion-electron system (eV)
  ---------------------------------------------------
  alpha Z        PSCENC =         0.00563328
  Ewald energy   TEWEN  =       -10.68537377
  -Hartree energ DENC   =      -482.11065285
  -exchange      EXHF   =         0.00000000
  -V(xc)+E(xc)   XCENC  =        29.02661077
  PAW double counting   =       463.69512993     -457.43959568
  entropy T*S    EENTRO =        -0.00000000
  eigenvalues    EBANDS =      -129.17112005
  atomic energy  EATOM  =       579.50312721
  Solvation  Ediel_sol  =         0.00000000
  ---------------------------------------------------
  free energy    TOTEN  =        -7.17624116 eV

  energy without entropy =       -7.17624116  energy(sigma->0) =       -7.17624116


--------------------------------------------------------------------------------------------------------




--------------------------------------- Iteration      1(   5)  ---------------------------------------


     EDDAV:  cpu time    4.5793: real time    4.5930
       DOS:  cpu time    0.0000: real time    0.0005
    CHARGE:  cpu time    1.0608: real time    1.0715
    MIXING:  cpu time    0.1460: real time    0.1460
    --------------------------------------------
      LOOP:  cpu time    5.7871: real time    5.8112

 eigenvalue-minimisations  :    48
 total energy-change (2. order) :-0.3095615E+00  (-0.3095615E+00)
 number of electron       9.9999997 magnetization      -0.0000000
 augmentation part        0.7432640 magnetization      -0.0005518

 Broyden mixing:
  rms(total) = 0.14782E+01    rms(broyden)= 0.14778E+01
  rms(prec ) = 0.16498E+01
  weight for this iteration     100.00

 Free energy of the ion-electron system (eV)
  ---------------------------------------------------
  alpha Z        PSCENC =         0.00563328
  Ewald energy   TEWEN  =       -10.68537377
  -Hartree energ DENC   =      -482.11065285
  -exchange      EXHF   =         0.00000000
  -V(xc)+E(xc)   XCENC  =        29.02661077
  PAW double counting   =       463.69512993     -457.43959568
  entropy T*S    EENTRO =        -0.00000000
  eigenvalues    EBANDS =      -129.48068151
  atomic energy  EATOM  =       579.50312721
  Solvation  Ediel_sol  =         0.00000000
  ---------------------------------------------------
  free energy    TOTEN  =        -7.48580262 eV

  energy without entropy =       -7.48580262  energy(sigma->0) =       -7.48580262


--------------------------------------------------------------------------------------------------------




--------------------------------------- Iteration      1(   6)  ---------------------------------------


    POTLOK:  cpu time    8.7677: real time    8.7737
    SETDIJ:  cpu time    0.0610: real time    0.0622
     EDDAV:  cpu time    4.5723: real time    4.5819
       DOS:  cpu time    0.0000: real time    0.0008
    CHARGE:  cpu time    1.0488: real time    1.0571
    MIXING:  cpu time    0.1520: real time    0.1528
    --------------------------------------------
      LOOP:  cpu time   14.6008: real time   14.6285

 eigenvalue-minimisations  :    48
 total energy-change (2. order) :-0.3385687E+02  (-0.5620058E+02)
 number of electron      10.0000003 magnetization      -0.0000000
 augmentation part        0.0302997 magnetization      -0.0001188

 Broyden mixing:
  rms(total) = 0.38354E+01    rms(broyden)= 0.38346E+01
  rms(prec ) = 0.42151E+01
  weight for this iteration     100.00

 eigenvalues of (default mixing * dielectric matrix)
  average eigenvalue GAMMA=   0.2750
  0.2750

 Free energy of the ion-electron system (eV)
  ---------------------------------------------------
  alpha Z        PSCENC =         0.00563328
  Ewald energy   TEWEN  =       -10.68537377
  -Hartree energ DENC   =      -518.27879360
  -exchange      EXHF   =         0.00000000
  -V(xc)+E(xc)   XCENC  =        30.78029522
  PAW double counting   =       501.17650283     -494.89433695
  entropy T*S    EENTRO =        -0.00000000
  eigenvalues    EBANDS =      -128.94972196
  atomic energy  EATOM  =       579.50312721
  Solvation  Ediel_sol  =         0.00000000
  ---------------------------------------------------
  free energy    TOTEN  =       -41.34266773 eV

  energy without entropy =      -41.34266773  energy(sigma->0) =      -41.34266773


--------------------------------------------------------------------------------------------------------




--------------------------------------- Iteration      1(   7)  ---------------------------------------


    POTLOK:  cpu time    8.7607: real time    8.7652
    SETDIJ:  cpu time    0.0630: real time    0.0640
     EDDAV:  cpu time    6.2531: real time    6.2710
       DOS:  cpu time    0.0010: real time    0.0007
    CHARGE:  cpu time    1.2648: real time    1.2746
    MIXING:  cpu time    0.1670: real time    0.1701
    --------------------------------------------
      LOOP:  cpu time   16.5105: real time   16.5455

 eigenvalue-minimisations  :    72
 total energy-change (2. order) : 0.3991668E+02  (-0.1068829E+01)
 number of electron      10.0000002 magnetization      -0.0000016
 augmentation part       -0.0675532 magnetization       0.0000705

 Broyden mixing:
  rms(total) = 0.31872E+01    rms(broyden)= 0.31872E+01
  rms(prec ) = 0.35452E+01
  weight for this iteration     100.00

 eigenvalues of (default mixing * dielectric matrix)
  average eigenvalue GAMMA=   0.3138
  0.3138  0.3138

 Free energy of the ion-electron system (eV)
  ---------------------------------------------------
  alpha Z        PSCENC =         0.00563328
  Ewald energy   TEWEN  =       -10.68537377
  -Hartree energ DENC   =      -495.03769098
  -exchange      EXHF   =         0.00000000
  -V(xc)+E(xc)   XCENC  =        29.70767282
  PAW double counting   =       475.72230377     -469.52304889
  entropy T*S    EENTRO =        -0.00077594
  eigenvalues    EBANDS =      -111.11783603
  atomic energy  EATOM  =       579.50312721
  Solvation  Ediel_sol  =         0.00000000
  ---------------------------------------------------
  free energy    TOTEN  =        -1.42598853 eV

  energy without entropy =       -1.42521259  energy(sigma->0) =       -1.42560056


--------------------------------------------------------------------------------------------------------




--------------------------------------- Iteration      1(   8)  ---------------------------------------


    POTLOK:  cpu time    8.7567: real time    8.7655
    SETDIJ:  cpu time    0.0620: real time    0.0632
     EDDAV:  cpu time    4.5643: real time    4.5757
       DOS:  cpu time    0.0010: real time    0.0007
    CHARGE:  cpu time    1.0548: real time    1.0560
    MIXING:  cpu time    0.1660: real time    0.1658
    --------------------------------------------
      LOOP:  cpu time   14.6048: real time   14.6269

 eigenvalue-minimisations  :    48
 total energy-change (2. order) :-0.4147370E+01  (-0.1687579E+02)
 number of electron       9.9999997 magnetization      -0.0000026
 augmentation part        0.7197643 magnetization      -0.0001863

 Broyden mixing:
  rms(total) = 0.13943E+01    rms(broyden)= 0.13922E+01
  rms(prec ) = 0.15634E+01
  weight for this iteration     100.00

 eigenvalues of (default mixing * dielectric matrix)
  average eigenvalue GAMMA=   0.7102
  1.5913  0.2697  0.2697

 Free energy of the ion-electron system (eV)
  ---------------------------------------------------
  alpha Z        PSCENC =         0.00563328
  Ewald energy   TEWEN  =       -10.68537377
  -Hartree energ DENC   =      -485.37309119
  -exchange      EXHF   =         0.00000000
  -V(xc)+E(xc)   XCENC  =        29.23405120
  PAW double counting   =       461.78121092     -455.55950895
  entropy T*S    EENTRO =        -0.00000000
  eigenvalues    EBANDS =      -124.47940737
  atomic energy  EATOM  =       579.50312721
  Solvation  Ediel_sol  =         0.00000000
  ---------------------------------------------------
  free energy    TOTEN  =        -5.57335866 eV

  energy without entropy =       -5.57335866  energy(sigma->0) =       -5.57335866


--------------------------------------------------------------------------------------------------------




--------------------------------------- Iteration      1(   9)  ---------------------------------------


    POTLOK:  cpu time    8.7627: real time    8.7682
    SETDIJ:  cpu time    0.0630: real time    0.0640
     EDDAV:  cpu time    4.5783: real time    4.5788
       DOS:  cpu time    0.0010: real time    0.0009
    CHARGE:  cpu time    1.0548: real time    1.0557
    MIXING:  cpu time    0.1720: real time    0.1736
    --------------------------------------------
      LOOP:  cpu time   14.6318: real time   14.6413

 eigenvalue-minimisations  :    48
 total energy-change (2. order) : 0.2506697E+01  (-0.2997351E-01)
 number of electron       9.9999997 magnetization      -0.0000026
 augmentation part        0.7023437 magnetization      -0.0001080

 Broyden mixing:
  rms(total) = 0.13081E+01    rms(broyden)= 0.13080E+01
  rms(prec ) = 0.14762E+01
  weight for this iteration     100.00

 eigenvalues of (default mixing * dielectric matrix)
  average eigenvalue GAMMA=   0.6173
  1.3192  0.2715  0.2715  0.6072

 Free energy of the ion-electron system (eV)
  ---------------------------------------------------
  alpha Z        PSCENC =         0.00563328
  Ewald energy   TEWEN  =       -10.68537377
  -Hartree energ DENC   =      -488.71124776
  -exchange      EXHF   =         0.00000000
  -V(xc)+E(xc)   XCENC  =        29.33352052
  PAW double counting   =       461.43612672     -455.23461391
  entropy T*S    EENTRO =        -0.00000000
  eigenvalues    EBANDS =      -118.71383437
  atomic energy  EATOM  =       579.50312721
  Solvation  Ediel_sol  =         0.00000000
  ---------------------------------------------------
  free energy    TOTEN  =        -3.06666207 eV

  energy without entropy =       -3.06666207  energy(sigma->0) =       -3.06666207


--------------------------------------------------------------------------------------------------------




--------------------------------------- Iteration      1(  10)  ---------------------------------------


    POTLOK:  cpu time    8.7547: real time    8.7671
    SETDIJ:  cpu time    0.0610: real time    0.0619
     EDDAV:  cpu time    7.9358: real time    7.9493
       DOS:  cpu time    0.0000: real time    0.0007
    CHARGE:  cpu time    1.0508: real time    1.0601
    MIXING:  cpu time    0.1840: real time    0.1847
    --------------------------------------------
      LOOP:  cpu time   17.9863: real time   18.0236

 eigenvalue-minimisations  :    96
 total energy-change (2. order) : 0.1808329E+00  (-0.8026404E-03)
 number of electron       9.9999997 magnetization      -0.0000030
 augmentation part        0.6994305 magnetization       0.0000337

 Broyden mixing:
  rms(total) = 0.12999E+01    rms(broyden)= 0.12999E+01
  rms(prec ) = 0.14679E+01
  weight for this iteration     100.00

 eigenvalues of (default mixing * dielectric matrix)
  average eigenvalue GAMMA=   0.8752
  1.9799  1.2584  0.2718  0.2718  0.5941

 Free energy of the ion-electron system (eV)
  ---------------------------------------------------
  alpha Z        PSCENC =         0.00563328
  Ewald energy   TEWEN  =       -10.68537377
  -Hartree energ DENC   =      -488.88189385
  -exchange      EXHF   =         0.00000000
  -V(xc)+E(xc)   XCENC  =        29.34704861
  PAW double counting   =       461.49469806     -455.29352641
  entropy T*S    EENTRO =        -0.00000000
  eigenvalues    EBANDS =      -118.37554228
  atomic energy  EATOM  =       579.50312721
  Solvation  Ediel_sol  =         0.00000000
  ---------------------------------------------------
  free energy    TOTEN  =        -2.88582915 eV

  energy without entropy =       -2.88582915  energy(sigma->0) =       -2.88582915


--------------------------------------------------------------------------------------------------------




--------------------------------------- Iteration      1(  11)  ---------------------------------------


    POTLOK:  cpu time    8.7657: real time    8.7708
    SETDIJ:  cpu time    0.0620: real time    0.0621
     EDDAV:  cpu time    4.5593: real time    4.5715
       DOS:  cpu time    0.0010: real time    0.0007
    CHARGE:  cpu time    1.0598: real time    1.0603
    MIXING:  cpu time    0.1920: real time    0.1913
    --------------------------------------------
      LOOP:  cpu time   14.6388: real time   14.6567

 eigenvalue-minimisations  :    48
 total energy-change (2. order) :-0.1359031E+01  (-0.2004952E-02)
 number of electron       9.9999997 magnetization      -0.0000029
 augmentation part        0.7009974 magnetization      -0.0007847

 Broyden mixing:
  rms(total) = 0.13106E+01    rms(broyden)= 0.13106E+01
  rms(prec ) = 0.14826E+01
  weight for this iteration     100.00

 eigenvalues of (default mixing * dielectric matrix)
  average eigenvalue GAMMA=   1.0004
  2.3435  1.9915  0.2724  0.2724  0.5612  0.5612

 Free energy of the ion-electron system (eV)
  ---------------------------------------------------
  alpha Z        PSCENC =         0.00563328
  Ewald energy   TEWEN  =       -10.68537377
  -Hartree energ DENC   =      -489.13636301
  -exchange      EXHF   =         0.00000000
  -V(xc)+E(xc)   XCENC  =        29.42858742
  PAW double counting   =       454.99726324     -448.81241606
  entropy T*S    EENTRO =        -0.00000000
  eigenvalues    EBANDS =      -119.54531823
  atomic energy  EATOM  =       579.50312721
  Solvation  Ediel_sol  =         0.00000000
  ---------------------------------------------------
  free energy    TOTEN  =        -4.24485994 eV

  energy without entropy =       -4.24485994  energy(sigma->0) =       -4.24485994


--------------------------------------------------------------------------------------------------------




--------------------------------------- Iteration      1(  12)  ---------------------------------------


    POTLOK:  cpu time    8.7677: real time    8.7728
    SETDIJ:  cpu time    0.0640: real time    0.0659
     EDDAV:  cpu time    6.2530: real time    6.2626
       DOS:  cpu time    0.0010: real time    0.0005
    CHARGE:  cpu time    1.0568: real time    1.0591
    MIXING:  cpu time    0.2020: real time    0.2026
    --------------------------------------------
      LOOP:  cpu time   16.3445: real time   16.3637

 eigenvalue-minimisations  :    72
 total energy-change (2. order) :-0.3580338E+01  (-0.1350686E-01)
 number of electron       9.9999997 magnetization      -0.0000033
 augmentation part        0.7126878 magnetization      -0.0009443

 Broyden mixing:
  rms(total) = 0.13639E+01    rms(broyden)= 0.13639E+01
  rms(prec ) = 0.15448E+01
  weight for this iteration     100.00

 eigenvalues of (default mixing * dielectric matrix)
  average eigenvalue GAMMA=   1.0569
  1.7757  1.7757  1.8890  0.2723  0.2723  0.7065  0.7065

 Free energy of the ion-electron system (eV)
  ---------------------------------------------------
  alpha Z        PSCENC =         0.00563328
  Ewald energy   TEWEN  =       -10.68537377
  -Hartree energ DENC   =      -488.34834943
  -exchange      EXHF   =         0.00000000
  -V(xc)+E(xc)   XCENC  =        29.53322208
  PAW double counting   =       447.20883995     -441.03968920
  entropy T*S    EENTRO =        -0.00000000
  eigenvalues    EBANDS =      -124.00260831
  atomic energy  EATOM  =       579.50312721
  Solvation  Ediel_sol  =         0.00000000
  ---------------------------------------------------
  free energy    TOTEN  =        -7.82519819 eV

  energy without entropy =       -7.82519819  energy(sigma->0) =       -7.82519819


--------------------------------------------------------------------------------------------------------




--------------------------------------- Iteration      1(  13)  ---------------------------------------


    POTLOK:  cpu time    8.7617: real time    8.7682
    SETDIJ:  cpu time    0.0620: real time    0.0621
     EDDAV:  cpu time    4.5673: real time    4.5717
       DOS:  cpu time    0.0010: real time    0.0004
    CHARGE:  cpu time    1.0528: real time    1.0612
    MIXING:  cpu time    0.2110: real time    0.2134
    --------------------------------------------
      LOOP:  cpu time   14.6568: real time   14.6768

 eigenvalue-minimisations  :    48
 total energy-change (2. order) : 0.3625182E+01  (-0.1317610E-01)
 number of electron       9.9999997 magnetization      -0.0000048
 augmentation part        0.7000812 magnetization      -0.0008055

 Broyden mixing:
  rms(total) = 0.13106E+01    rms(broyden)= 0.13106E+01
  rms(prec ) = 0.14824E+01
  weight for this iteration     100.00

 eigenvalues of (default mixing * dielectric matrix)
  average eigenvalue GAMMA=   1.3469
  2.7861  2.7861  2.0017  0.2723  0.2723  0.9829  0.9829  0.6909

 Free energy of the ion-electron system (eV)
  ---------------------------------------------------
  alpha Z        PSCENC =         0.00563328
  Ewald energy   TEWEN  =       -10.68537377
  -Hartree energ DENC   =      -489.36468079
  -exchange      EXHF   =         0.00000000
  -V(xc)+E(xc)   XCENC  =        29.43806165
  PAW double counting   =       450.27240575     -444.09437031
  entropy T*S    EENTRO =        -0.00000000
  eigenvalues    EBANDS =      -119.27481888
  atomic energy  EATOM  =       579.50312721
  Solvation  Ediel_sol  =         0.00000000
  ---------------------------------------------------
  free energy    TOTEN  =        -4.20001586 eV

  energy without entropy =       -4.20001586  energy(sigma->0) =       -4.20001586


--------------------------------------------------------------------------------------------------------




--------------------------------------- Iteration      1(  14)  ---------------------------------------


    POTLOK:  cpu time    8.7627: real time    8.7678
    SETDIJ:  cpu time    0.0610: real time    0.0627
     EDDAV:  cpu time    7.1059: real time    7.1183
       DOS:  cpu time    0.0010: real time    0.0008
    CHARGE:  cpu time    1.0498: real time    1.0588
    MIXING:  cpu time    0.2240: real time    0.2246
    --------------------------------------------
      LOOP:  cpu time   17.2044: real time   17.2329

 eigenvalue-minimisations  :    84
 total energy-change (2. order) :-0.2655129E+01  (-0.9233956E+01)
 number of electron      10.0000003 magnetization      -0.0000035
 augmentation part       -0.0620584 magnetization      -0.0002592

 Broyden mixing:
  rms(total) = 0.31629E+01    rms(broyden)= 0.31619E+01
  rms(prec ) = 0.35344E+01
  weight for this iteration     100.00

 eigenvalues of (default mixing * dielectric matrix)
  average eigenvalue GAMMA=   1.2333
  2.5271  2.5271  2.4124  0.2723  0.2723  0.9147  0.9147  0.6852  0.5736

 Free energy of the ion-electron system (eV)
  ---------------------------------------------------
  alpha Z        PSCENC =         0.00563328
  Ewald energy   TEWEN  =       -10.68537377
  -Hartree energ DENC   =      -492.67238872
  -exchange      EXHF   =         0.00000000
  -V(xc)+E(xc)   XCENC  =        29.33892953
  PAW double counting   =       447.69395543     -441.51157042
  entropy T*S    EENTRO =        -0.00000000
  eigenvalues    EBANDS =      -118.52745737
  atomic energy  EATOM  =       579.50312721
  Solvation  Ediel_sol  =         0.00000000
  ---------------------------------------------------
  free energy    TOTEN  =        -6.85514483 eV

  energy without entropy =       -6.85514483  energy(sigma->0) =       -6.85514483


--------------------------------------------------------------------------------------------------------




--------------------------------------- Iteration      1(  15)  ---------------------------------------


    POTLOK:  cpu time    8.7577: real time    8.7639
    SETDIJ:  cpu time    0.0620: real time    0.0631
     EDDAV:  cpu time    6.2560: real time    6.2641
       DOS:  cpu time    0.0010: real time    0.0006
    CHARGE:  cpu time    1.0488: real time    1.0565
    MIXING:  cpu time    0.2380: real time    0.2391
    --------------------------------------------
      LOOP:  cpu time   16.3625: real time   16.3876

 eigenvalue-minimisations  :    72
 total energy-change (2. order) : 0.5086872E+01  (-0.4755730E+01)
 number of electron       9.9999997 magnetization      -0.0000037
 augmentation part        0.7106281 magnetization       0.0000031

 Broyden mixing:
  rms(total) = 0.13536E+01    rms(broyden)= 0.13521E+01
  rms(prec ) = 0.15122E+01
  weight for this iteration     100.00

 eigenvalues of (default mixing * dielectric matrix)
  average eigenvalue GAMMA=   1.2436
  2.6164  2.6164  2.5559  1.0600  1.0600  0.2723  0.2723  0.7022  0.7022  0.5782

 Free energy of the ion-electron system (eV)
  ---------------------------------------------------
  alpha Z        PSCENC =         0.00563328
  Ewald energy   TEWEN  =       -10.68537377
  -Hartree energ DENC   =      -488.43726131
  -exchange      EXHF   =         0.00000000
  -V(xc)+E(xc)   XCENC  =        29.24693814
  PAW double counting   =       451.70057941     -445.50345987
  entropy T*S    EENTRO =        -0.00000000
  eigenvalues    EBANDS =      -117.59845606
  atomic energy  EATOM  =       579.50312721
  Solvation  Ediel_sol  =         0.00000000
  ---------------------------------------------------
  free energy    TOTEN  =        -1.76827298 eV

  energy without entropy =       -1.76827298  energy(sigma->0) =       -1.76827298


--------------------------------------------------------------------------------------------------------




--------------------------------------- Iteration      1(  16)  ---------------------------------------


    POTLOK:  cpu time    8.7497: real time    8.7636
    SETDIJ:  cpu time    0.0640: real time    0.0635
     EDDAV:  cpu time    7.9358: real time    7.9568
       DOS:  cpu time    0.0010: real time    0.0006
    CHARGE:  cpu time    1.0568: real time    1.0571
    MIXING:  cpu time    0.2500: real time    0.2510
    --------------------------------------------
      LOOP:  cpu time   18.0583: real time   18.0927

 eigenvalue-minimisations  :    96
 total energy-change (2. order) :-0.4921560E+00  (-0.3740049E-02)
 number of electron       9.9999997 magnetization      -0.0000039
 augmentation part        0.7018831 magnetization      -0.0000755

 Broyden mixing:
  rms(total) = 0.13187E+01    rms(broyden)= 0.13187E+01
  rms(prec ) = 0.14824E+01
  weight for this iteration     100.00

 eigenvalues of (default mixing * dielectric matrix)
  average eigenvalue GAMMA=   1.2270
  2.6463  2.6463  2.5563  1.1919  1.1919  0.2723  0.2723  0.7264  0.7264  0.6337
  0.6337

 Free energy of the ion-electron system (eV)
  ---------------------------------------------------
  alpha Z        PSCENC =         0.00563328
  Ewald energy   TEWEN  =       -10.68537377
  -Hartree energ DENC   =      -489.69396364
  -exchange      EXHF   =         0.00000000
  -V(xc)+E(xc)   XCENC  =        29.33870486
  PAW double counting   =       453.46673326     -447.27935003
  entropy T*S    EENTRO =        -0.00000000
  eigenvalues    EBANDS =      -116.91594016
  atomic energy  EATOM  =       579.50312721
  Solvation  Ediel_sol  =         0.00000000
  ---------------------------------------------------
  free energy    TOTEN  =        -2.26042899 eV

  energy without entropy =       -2.26042899  energy(sigma->0) =       -2.26042899


--------------------------------------------------------------------------------------------------------




--------------------------------------- Iteration      1(  17)  ---------------------------------------


    POTLOK:  cpu time    8.7647: real time    8.7694
    SETDIJ:  cpu time    0.0610: real time    0.0627
     EDDAV:  cpu time    6.2381: real time    6.2598
       DOS:  cpu time    0.0000: real time    0.0006
    CHARGE:  cpu time    1.2658: real time    1.2738
    MIXING:  cpu time    0.2650: real time    0.2654
    --------------------------------------------
      LOOP:  cpu time   16.5945: real time   16.6314

 eigenvalue-minimisations  :    72
 total energy-change (2. order) : 0.1117997E+01  (-0.1745576E-02)
 number of electron       9.9999997 magnetization      -0.0000037
 augmentation part        0.6964606 magnetization      -0.0001279

 Broyden mixing:
  rms(total) = 0.12975E+01    rms(broyden)= 0.12975E+01
  rms(prec ) = 0.14584E+01
  weight for this iteration     100.00

 eigenvalues of (default mixing * dielectric matrix)
  average eigenvalue GAMMA=   1.1407
  2.6506  2.6506  2.5561  1.2037  1.2037  0.2723  0.2723  0.7067  0.7067  0.6409
  0.6409  0.1844

 Free energy of the ion-electron system (eV)
  ---------------------------------------------------
  alpha Z        PSCENC =         0.00563328
  Ewald energy   TEWEN  =       -10.68537377
  -Hartree energ DENC   =      -490.25929931
  -exchange      EXHF   =         0.00000000
  -V(xc)+E(xc)   XCENC  =        29.33032952
  PAW double counting   =       453.76596721     -447.57674666
  entropy T*S    EENTRO =        -0.00000000
  eigenvalues    EBANDS =      -115.22606953
  atomic energy  EATOM  =       579.50312721
  Solvation  Ediel_sol  =         0.00000000
  ---------------------------------------------------
  free energy    TOTEN  =        -1.14243205 eV

  energy without entropy =       -1.14243204  energy(sigma->0) =       -1.14243205


--------------------------------------------------------------------------------------------------------




--------------------------------------- Iteration      1(  18)  ---------------------------------------


    POTLOK:  cpu time    8.7577: real time    8.7673
    SETDIJ:  cpu time    0.0620: real time    0.0623
     EDDAV:  cpu time    6.2610: real time    6.2684
       DOS:  cpu time    0.0000: real time    0.0006
    CHARGE:  cpu time    1.0558: real time    1.0589
    MIXING:  cpu time    0.2830: real time    0.2837
    --------------------------------------------
      LOOP:  cpu time   16.4195: real time   16.4413

 eigenvalue-minimisations  :    72
 total energy-change (2. order) :-0.1060426E+01  (-0.1863271E-02)
 number of electron       9.9999997 magnetization      -0.0000038
 augmentation part        0.7022169 magnetization      -0.0001394

 Broyden mixing:
  rms(total) = 0.13198E+01    rms(broyden)= 0.13198E+01
  rms(prec ) = 0.14833E+01
  weight for this iteration     100.00

 eigenvalues of (default mixing * dielectric matrix)
  average eigenvalue GAMMA=   1.1301
  2.5817  2.5817  2.5604  1.2218  1.2218  0.6876  0.2723  0.2723  0.7670  0.7670
  0.6469  0.6469  0.4646

 Free energy of the ion-electron system (eV)
  ---------------------------------------------------
  alpha Z        PSCENC =         0.00563328
  Ewald energy   TEWEN  =       -10.68537377
  -Hartree energ DENC   =      -489.65228044
  -exchange      EXHF   =         0.00000000
  -V(xc)+E(xc)   XCENC  =        29.34246734
  PAW double counting   =       453.85142441     -447.66305986
  entropy T*S    EENTRO =        -0.00000000
  eigenvalues    EBANDS =      -116.90479574
  atomic energy  EATOM  =       579.50312721
  Solvation  Ediel_sol  =         0.00000000
  ---------------------------------------------------
  free energy    TOTEN  =        -2.20285757 eV

  energy without entropy =       -2.20285757  energy(sigma->0) =       -2.20285757


--------------------------------------------------------------------------------------------------------




--------------------------------------- Iteration      1(  19)  ---------------------------------------


    POTLOK:  cpu time    8.7537: real time    8.7605
    SETDIJ:  cpu time    0.0630: real time    0.0636
     EDDAV:  cpu time    4.5693: real time    4.5712
       DOS:  cpu time    0.0010: real time    0.0007
    CHARGE:  cpu time    1.0458: real time    1.0537
    MIXING:  cpu time    0.2970: real time    0.2981
    --------------------------------------------
      LOOP:  cpu time   14.7298: real time   14.7478

 eigenvalue-minimisations  :    48
 total energy-change (2. order) : 0.7093298E+00  (-0.7361053E-03)
 number of electron       9.9999997 magnetization      -0.0000039
 augmentation part        0.6986927 magnetization      -0.0001263

 Broyden mixing:
  rms(total) = 0.13057E+01    rms(broyden)= 0.13057E+01
  rms(prec ) = 0.14674E+01
  weight for this iteration     100.00

 eigenvalues of (default mixing * dielectric matrix)
  average eigenvalue GAMMA=   1.0717
  2.5592  2.5592  2.5610  0.8981  1.2235  1.2235  0.2723  0.2723  0.7652  0.7652
  0.6461  0.6461  0.4363  0.1755

 Free energy of the ion-electron system (eV)
  ---------------------------------------------------
  alpha Z        PSCENC =         0.00563328
  Ewald energy   TEWEN  =       -10.68537377
  -Hartree energ DENC   =      -490.02947201
  -exchange      EXHF   =         0.00000000
  -V(xc)+E(xc)   XCENC  =        29.33382763
  PAW double counting   =       453.55632019     -447.36737994
  entropy T*S    EENTRO =        -0.00000000
  eigenvalues    EBANDS =      -115.81021033
  atomic energy  EATOM  =       579.50312721
  Solvation  Ediel_sol  =         0.00000000
  ---------------------------------------------------
  free energy    TOTEN  =        -1.49352775 eV

  energy without entropy =       -1.49352775  energy(sigma->0) =       -1.49352775


--------------------------------------------------------------------------------------------------------




--------------------------------------- Iteration      1(  20)  ---------------------------------------


    POTLOK:  cpu time    8.7627: real time    8.7685
    SETDIJ:  cpu time    0.0630: real time    0.0621
     EDDAV:  cpu time    6.2451: real time    6.2561
       DOS:  cpu time    0.0000: real time    0.0004
    CHARGE:  cpu time    1.2758: real time    1.2776
    MIXING:  cpu time    0.3160: real time    0.3158
    --------------------------------------------
      LOOP:  cpu time   16.6615: real time   16.6806

 eigenvalue-minimisations  :    72
 total energy-change (2. order) :-0.2110390E+00  (-0.1900017E+01)
 number of electron      10.0000002 magnetization      -0.0000012
 augmentation part       -0.0743982 magnetization       0.0000051

 Broyden mixing:
  rms(total) = 0.30996E+01    rms(broyden)= 0.30987E+01
  rms(prec ) = 0.34656E+01
  weight for this iteration     100.00

 eigenvalues of (default mixing * dielectric matrix)
  average eigenvalue GAMMA=   1.0950
  2.3997  2.3997  2.5338  1.6801  1.2740  1.2740  0.2723  0.2723  0.8110  0.8110
  0.6392  0.6392  0.5526  0.5526  0.3143

 Free energy of the ion-electron system (eV)
  ---------------------------------------------------
  alpha Z        PSCENC =         0.00563328
  Ewald energy   TEWEN  =       -10.68537377
  -Hartree energ DENC   =      -490.94357023
  -exchange      EXHF   =         0.00000000
  -V(xc)+E(xc)   XCENC  =        29.31080208
  PAW double counting   =       452.76376896     -446.57328731
  entropy T*S    EENTRO =        -0.00000836
  eigenvalues    EBANDS =      -115.08565860
  atomic energy  EATOM  =       579.50312721
  Solvation  Ediel_sol  =         0.00000000
  ---------------------------------------------------
  free energy    TOTEN  =        -1.70456676 eV

  energy without entropy =       -1.70455839  energy(sigma->0) =       -1.70456257


--------------------------------------------------------------------------------------------------------




--------------------------------------- Iteration      1(  21)  ---------------------------------------


    POTLOK:  cpu time    8.7597: real time    8.7654
    SETDIJ:  cpu time    0.0600: real time    0.0609
     EDDAV:  cpu time    6.2541: real time    6.2584
       DOS:  cpu time    0.0000: real time    0.0008
    CHARGE:  cpu time    1.0478: real time    1.0561
    MIXING:  cpu time    0.3339: real time    0.3368
    --------------------------------------------
      LOOP:  cpu time   16.4565: real time   16.4783

 eigenvalue-minimisations  :    72
 total energy-change (2. order) :-0.1702728E+02  (-0.5479862E+02)
 number of electron       9.9999997 magnetization      -0.0000023
 augmentation part        0.7836746 magnetization      -0.0004341

 Broyden mixing:
  rms(total) = 0.16425E+01    rms(broyden)= 0.16412E+01
  rms(prec ) = 0.18393E+01
  weight for this iteration     100.00

 eigenvalues of (default mixing * dielectric matrix)
  average eigenvalue GAMMA=   1.1260
  2.3307  2.3948  2.3948  2.4395  1.1557  1.1557  1.0602  1.0602  0.2723  0.2723
  0.7186  0.7186  0.6271  0.6271  0.5266  0.2619

 Free energy of the ion-electron system (eV)
  ---------------------------------------------------
  alpha Z        PSCENC =         0.00563328
  Ewald energy   TEWEN  =       -10.68537377
  -Hartree energ DENC   =      -481.52658315
  -exchange      EXHF   =         0.00000000
  -V(xc)+E(xc)   XCENC  =        29.48307704
  PAW double counting   =       463.77314475     -457.57264729
  entropy T*S    EENTRO =        -0.00000000
  eigenvalues    EBANDS =      -141.71222580
  atomic energy  EATOM  =       579.50312721
  Solvation  Ediel_sol  =         0.00000000
  ---------------------------------------------------
  free energy    TOTEN  =       -18.73184773 eV

  energy without entropy =      -18.73184773  energy(sigma->0) =      -18.73184773


--------------------------------------------------------------------------------------------------------




--------------------------------------- Iteration      1(  22)  ---------------------------------------


    POTLOK:  cpu time    8.7667: real time    8.7727
    SETDIJ:  cpu time    0.0630: real time    0.0631
     EDDAV:  cpu time    4.5653: real time    4.5772
       DOS:  cpu time    0.0000: real time    0.0005
    CHARGE:  cpu time    1.0568: real time    1.0567
    MIXING:  cpu time    0.3519: real time    0.3530
    --------------------------------------------
      LOOP:  cpu time   14.8037: real time   14.8233

 eigenvalue-minimisations  :    48
 total energy-change (2. order) : 0.1038543E+02  (-0.1267089E+00)
 number of electron       9.9999997 magnetization      -0.0000029
 augmentation part        0.7369821 magnetization      -0.0002858

 Broyden mixing:
  rms(total) = 0.14541E+01    rms(broyden)= 0.14541E+01
  rms(prec ) = 0.16311E+01
  weight for this iteration     100.00

 eigenvalues of (default mixing * dielectric matrix)
  average eigenvalue GAMMA=   1.3412
  4.8865  2.0851  2.0851  2.3843  2.3843  1.9932  1.0555  1.0555  0.2723  0.2723
  0.7823  0.7823  0.6664  0.6664  0.5991  0.5991  0.2306

 Free energy of the ion-electron system (eV)
  ---------------------------------------------------
  alpha Z        PSCENC =         0.00563328
  Ewald energy   TEWEN  =       -10.68537377
  -Hartree energ DENC   =      -485.65984002
  -exchange      EXHF   =         0.00000000
  -V(xc)+E(xc)   XCENC  =        29.32785861
  PAW double counting   =       459.66771920     -453.46807818
  entropy T*S    EENTRO =        -0.00000000
  eigenvalues    EBANDS =      -127.03745925
  atomic energy  EATOM  =       579.50312721
  Solvation  Ediel_sol  =         0.00000000
  ---------------------------------------------------
  free energy    TOTEN  =        -8.34641292 eV

  energy without entropy =       -8.34641292  energy(sigma->0) =       -8.34641292


--------------------------------------------------------------------------------------------------------




--------------------------------------- Iteration      1(  23)  ---------------------------------------


    POTLOK:  cpu time    8.7597: real time    8.7635
    SETDIJ:  cpu time    0.0600: real time    0.0616
     EDDAV:  cpu time    6.2590: real time    6.2606
       DOS:  cpu time    0.0000: real time    0.0008
    CHARGE:  cpu time    1.0468: real time    1.0567
    MIXING:  cpu time    0.3729: real time    0.3719
    --------------------------------------------
      LOOP:  cpu time   16.4975: real time   16.5151

 eigenvalue-minimisations  :    72
 total energy-change (2. order) : 0.5229086E+01  (-0.3889872E-01)
 number of electron       9.9999997 magnetization      -0.0000029
 augmentation part        0.7122775 magnetization      -0.0000779

 Broyden mixing:
  rms(total) = 0.13565E+01    rms(broyden)= 0.13565E+01
  rms(prec ) = 0.15212E+01
  weight for this iteration     100.00

 eigenvalues of (default mixing * dielectric matrix)
  average eigenvalue GAMMA=   1.5088
  8.5142  2.0100  2.0100  2.5455  2.2269  2.2269  0.2723  0.2723  0.9695  0.9695
  0.7856  0.7856  0.7604  0.7604  0.6320  0.6320  0.5539  0.2308

 Free energy of the ion-electron system (eV)
  ---------------------------------------------------
  alpha Z        PSCENC =         0.00563328
  Ewald energy   TEWEN  =       -10.68537377
  -Hartree energ DENC   =      -488.22837812
  -exchange      EXHF   =         0.00000000
  -V(xc)+E(xc)   XCENC  =        29.27932335
  PAW double counting   =       460.19848674     -453.99530231
  entropy T*S    EENTRO =        -0.00000000
  eigenvalues    EBANDS =      -119.19484330
  atomic energy  EATOM  =       579.50312721
  Solvation  Ediel_sol  =         0.00000000
  ---------------------------------------------------
  free energy    TOTEN  =        -3.11732692 eV

  energy without entropy =       -3.11732692  energy(sigma->0) =       -3.11732692


--------------------------------------------------------------------------------------------------------




--------------------------------------- Iteration      1(  24)  ---------------------------------------


    POTLOK:  cpu time    8.7557: real time    8.7631
    SETDIJ:  cpu time    0.0630: real time    0.0623
     EDDAV:  cpu time    6.2460: real time    6.2582
       DOS:  cpu time    0.0000: real time    0.0006
    CHARGE:  cpu time    1.0558: real time    1.0563
    MIXING:  cpu time    0.3929: real time    0.3931
    --------------------------------------------
      LOOP:  cpu time   16.5135: real time   16.5334

 eigenvalue-minimisations  :    72
 total energy-change (2. order) :-0.4765408E+00  (-0.3878887E-03)
 number of electron       9.9999997 magnetization      -0.0000029
 augmentation part        0.7133935 magnetization      -0.0000871

 Broyden mixing:
  rms(total) = 0.13615E+01    rms(broyden)= 0.13615E+01
  rms(prec ) = 0.15276E+01
  weight for this iteration     100.00

 eigenvalues of (default mixing * dielectric matrix)
  average eigenvalue GAMMA=   1.4196
  7.0744  2.0692  2.0692  2.5514  2.2864  2.2864  1.1078  1.1078  0.2723  0.2723
  0.8421  0.8421  0.6980  0.6980  0.6902  0.6902  0.6174  0.5657  0.2316

 Free energy of the ion-electron system (eV)
  ---------------------------------------------------
  alpha Z        PSCENC =         0.00563328
  Ewald energy   TEWEN  =       -10.68537377
  -Hartree energ DENC   =      -488.19027200
  -exchange      EXHF   =         0.00000000
  -V(xc)+E(xc)   XCENC  =        29.30173913
  PAW double counting   =       459.04158113     -452.84236196
  entropy T*S    EENTRO =        -0.00000000
  eigenvalues    EBANDS =      -119.72794074
  atomic energy  EATOM  =       579.50312721
  Solvation  Ediel_sol  =         0.00000000
  ---------------------------------------------------
  free energy    TOTEN  =        -3.59386772 eV

  energy without entropy =       -3.59386772  energy(sigma->0) =       -3.59386772


--------------------------------------------------------------------------------------------------------




--------------------------------------- Iteration      1(  25)  ---------------------------------------


    POTLOK:  cpu time    8.7577: real time    8.7700
    SETDIJ:  cpu time    0.0630: real time    0.0633
     EDDAV:  cpu time    7.9248: real time    7.9637
       DOS:  cpu time    0.0000: real time    0.0008
    CHARGE:  cpu time    1.0488: real time    1.0561
    MIXING:  cpu time    0.4149: real time    0.4183
    --------------------------------------------
      LOOP:  cpu time   18.2102: real time   18.2721

 eigenvalue-minimisations  :    96
 total energy-change (2. order) : 0.8625065E+00  (-0.1364875E-02)
 number of electron       9.9999997 magnetization      -0.0000030
 augmentation part        0.7081424 magnetization      -0.0000878

 Broyden mixing:
  rms(total) = 0.13414E+01    rms(broyden)= 0.13414E+01
  rms(prec ) = 0.15056E+01
  weight for this iteration     100.00

 eigenvalues of (default mixing * dielectric matrix)
  average eigenvalue GAMMA=   1.3791
  5.4033  2.7332  2.7332  2.1057  2.1057  2.5812  1.3286  1.3286  0.2723  0.2723
  0.8977  0.8977  0.6826  0.6826  0.7460  0.7460  0.6353  0.6353  0.5621  0.2317

 Free energy of the ion-electron system (eV)
  ---------------------------------------------------
  alpha Z        PSCENC =         0.00563328
  Ewald energy   TEWEN  =       -10.68537377
  -Hartree energ DENC   =      -488.76314222
  -exchange      EXHF   =         0.00000000
  -V(xc)+E(xc)   XCENC  =        29.30096600
  PAW double counting   =       456.72540701     -450.52864378
  entropy T*S    EENTRO =        -0.00000000
  eigenvalues    EBANDS =      -118.28933499
  atomic energy  EATOM  =       579.50312721
  Solvation  Ediel_sol  =         0.00000000
  ---------------------------------------------------
  free energy    TOTEN  =        -2.73136126 eV

  energy without entropy =       -2.73136126  energy(sigma->0) =       -2.73136126


--------------------------------------------------------------------------------------------------------




--------------------------------------- Iteration      1(  26)  ---------------------------------------


    POTLOK:  cpu time    8.7567: real time    8.7699
    SETDIJ:  cpu time    0.0620: real time    0.0623
     EDDAV:  cpu time    6.2431: real time    6.2496
       DOS:  cpu time    0.0000: real time    0.0009
    CHARGE:  cpu time    1.2628: real time    1.2739
    MIXING:  cpu time    0.4319: real time    0.4342
    --------------------------------------------
      LOOP:  cpu time   16.7555: real time   16.7908

 eigenvalue-minimisations  :    72
 total energy-change (2. order) : 0.1846824E+01  (-0.5630115E-02)
 number of electron       9.9999997 magnetization      -0.0000041
 augmentation part        0.6975771 magnetization      -0.0000926

 Broyden mixing:
  rms(total) = 0.13005E+01    rms(broyden)= 0.13005E+01
  rms(prec ) = 0.14602E+01
  weight for this iteration     100.00

 eigenvalues of (default mixing * dielectric matrix)
  average eigenvalue GAMMA=   1.3707
  4.5682  3.4696  3.4696  2.0804  2.0804  2.5761  1.3592  1.3592  0.2723  0.2723
  0.2317  0.8977  0.8977  0.7068  0.7068  0.7371  0.7371  0.6200  0.6200  0.5613
  0.5613

 Free energy of the ion-electron system (eV)
  ---------------------------------------------------
  alpha Z        PSCENC =         0.00563328
  Ewald energy   TEWEN  =       -10.68537377
  -Hartree energ DENC   =      -489.87836168
  -exchange      EXHF   =         0.00000000
  -V(xc)+E(xc)   XCENC  =        29.28758716
  PAW double counting   =       454.45704555     -448.26162269
  entropy T*S    EENTRO =        -0.00006608
  eigenvalues    EBANDS =      -115.31250606
  atomic energy  EATOM  =       579.50312721
  Solvation  Ediel_sol  =         0.00000000
  ---------------------------------------------------
  free energy    TOTEN  =        -0.88453709 eV

  energy without entropy =       -0.88447100  energy(sigma->0) =       -0.88450404


--------------------------------------------------------------------------------------------------------




--------------------------------------- Iteration      1(  27)  ---------------------------------------


    POTLOK:  cpu time    8.7607: real time    8.7710
    SETDIJ:  cpu time    0.0630: real time    0.0629
     EDDAV:  cpu time    7.9508: real time    7.9638
       DOS:  cpu time    0.0010: real time    0.0005
    CHARGE:  cpu time    1.2648: real time    1.2742
    MIXING:  cpu time    0.4599: real time    0.4602
    --------------------------------------------
      LOOP:  cpu time   18.5012: real time   18.5326

 eigenvalue-minimisations  :    96
 total energy-change (2. order) :-0.6080976E+00  (-0.1591630E+01)
 number of electron      10.0000002 magnetization       0.0000001
 augmentation part       -0.0743990 magnetization       0.0000392

 Broyden mixing:
  rms(total) = 0.30965E+01    rms(broyden)= 0.30955E+01
  rms(prec ) = 0.34624E+01
  weight for this iteration     100.00

 eigenvalues of (default mixing * dielectric matrix)
  average eigenvalue GAMMA=   1.3211
  4.5358  3.1017  3.1017  2.0874  2.0874  2.5515  1.3802  1.3802  0.2723  0.2723
  0.7814  0.7814  0.9405  0.9405  0.7633  0.7633  0.6477  0.6477  0.6190  0.6190
  0.5586  0.2317

 Free energy of the ion-electron system (eV)
  ---------------------------------------------------
  alpha Z        PSCENC =         0.00563328
  Ewald energy   TEWEN  =       -10.68537377
  -Hartree energ DENC   =      -490.45845300
  -exchange      EXHF   =         0.00000000
  -V(xc)+E(xc)   XCENC  =        29.27720296
  PAW double counting   =       453.51004875     -447.31476808
  entropy T*S    EENTRO =        -0.00015726
  eigenvalues    EBANDS =      -115.32989483
  atomic energy  EATOM  =       579.50312721
  Solvation  Ediel_sol  =         0.00000000
  ---------------------------------------------------
  free energy    TOTEN  =        -1.49263473 eV

  energy without entropy =       -1.49247747  energy(sigma->0) =       -1.49255610


--------------------------------------------------------------------------------------------------------




--------------------------------------- Iteration      1(  28)  ---------------------------------------


    POTLOK:  cpu time    8.7567: real time    8.7614
    SETDIJ:  cpu time    0.0610: real time    0.0626
     EDDAV:  cpu time    6.2430: real time    6.2517
       DOS:  cpu time    0.0010: real time    0.0007
    CHARGE:  cpu time    1.0468: real time    1.0567
    MIXING:  cpu time    0.4829: real time    0.4868
    --------------------------------------------
      LOOP:  cpu time   16.5905: real time   16.6201

 eigenvalue-minimisations  :    72
 total energy-change (2. order) :-0.3011924E+02  (-0.8780376E+02)
 number of electron       9.9999997 magnetization      -0.0000027
 augmentation part        0.8324431 magnetization      -0.0001268

 Broyden mixing:
  rms(total) = 0.18395E+01    rms(broyden)= 0.18382E+01
  rms(prec ) = 0.20598E+01
  weight for this iteration     100.00

 eigenvalues of (default mixing * dielectric matrix)
  average eigenvalue GAMMA=   1.2707
  4.5009  3.0828  3.0828  2.5606  2.0841  2.0841  1.3768  1.3768  0.2723  0.2723
  0.9808  0.9808  0.7969  0.7969  0.7753  0.7753  0.6759  0.6759  0.6186  0.6186
  0.5584  0.2317  0.0474

 Free energy of the ion-electron system (eV)
  ---------------------------------------------------
  alpha Z        PSCENC =         0.00563328
  Ewald energy   TEWEN  =       -10.68537377
  -Hartree energ DENC   =      -477.99653241
  -exchange      EXHF   =         0.00000000
  -V(xc)+E(xc)   XCENC  =        29.64035403
  PAW double counting   =       482.92726345     -476.71174010
  entropy T*S    EENTRO =        -0.00000000
  eigenvalues    EBANDS =      -158.29460919
  atomic energy  EATOM  =       579.50312721
  Solvation  Ediel_sol  =         0.00000000
  ---------------------------------------------------
  free energy    TOTEN  =       -31.61187752 eV

  energy without entropy =      -31.61187752  energy(sigma->0) =      -31.61187752


--------------------------------------------------------------------------------------------------------




--------------------------------------- Iteration      1(  29)  ---------------------------------------


    POTLOK:  cpu time    8.7527: real time    8.7632
    SETDIJ:  cpu time    0.0610: real time    0.0611
     EDDAV:  cpu time    6.2431: real time    6.2554
       DOS:  cpu time    0.0010: real time    0.0006
    CHARGE:  cpu time    1.0578: real time    1.0585
    MIXING:  cpu time    0.5189: real time    0.5195
    --------------------------------------------
      LOOP:  cpu time   16.6345: real time   16.6581

 eigenvalue-minimisations  :    72
 total energy-change (2. order) : 0.2203619E+02  (-0.4676018E+00)
 number of electron       9.9999997 magnetization      -0.0000041
 augmentation part        0.7472403 magnetization      -0.0000197

 Broyden mixing:
  rms(total) = 0.14916E+01    rms(broyden)= 0.14916E+01
  rms(prec ) = 0.16704E+01
  weight for this iteration     100.00

 eigenvalues of (default mixing * dielectric matrix)
  average eigenvalue GAMMA=   1.2224
  4.5222  3.0715  3.0715  2.5614  2.0854  2.0854  1.3726  1.3726  0.9799  0.9799
  0.7949  0.7949  0.2723  0.2723  0.7770  0.7770  0.6726  0.6726  0.6182  0.6182
  0.5587  0.2317  0.0872  0.0872

 Free energy of the ion-electron system (eV)
  ---------------------------------------------------
  alpha Z        PSCENC =         0.00563328
  Ewald energy   TEWEN  =       -10.68537377
  -Hartree energ DENC   =      -484.37592623
  -exchange      EXHF   =         0.00000000
  -V(xc)+E(xc)   XCENC  =        29.28306008
  PAW double counting   =       469.50608823     -463.29701798
  entropy T*S    EENTRO =        -0.00000000
  eigenvalues    EBANDS =      -129.51527717
  atomic energy  EATOM  =       579.50312721
  Solvation  Ediel_sol  =         0.00000000
  ---------------------------------------------------
  free energy    TOTEN  =        -9.57568635 eV

  energy without entropy =       -9.57568635  energy(sigma->0) =       -9.57568635


--------------------------------------------------------------------------------------------------------




--------------------------------------- Iteration      1(  30)  ---------------------------------------


    POTLOK:  cpu time    8.7637: real time    8.7697
    SETDIJ:  cpu time    0.0630: real time    0.0628
     EDDAV:  cpu time    6.2441: real time    6.2558
       DOS:  cpu time    0.0010: real time    0.0005
    CHARGE:  cpu time    1.0488: real time    1.0585
[...]
 number of electron       9.9999998 magnetization       3.9423440
 augmentation part        0.4878175 magnetization       0.5215825

 Broyden mixing:
  rms(total) = 0.26662E-02    rms(broyden)= 0.26662E-02
  rms(prec ) = 0.28167E-02
  weight for this iteration     100.00

 eigenvalues of (default mixing * dielectric matrix)
  average eigenvalue GAMMA=   2.0247
 16.5129  8.3720  7.3526  5.3488  5.3488  4.9446  1.3940  2.7899  2.7899  2.7351
  1.4992  1.4992  1.9388  1.9388  0.9072  0.9072  0.2049  1.2131  0.0611  0.0611
  0.0098  0.7988  0.7988  0.9575  0.8256  0.8256  0.6674  0.6674  0.7861  0.7861
  0.7891  0.4860  0.4860  0.5546  0.6313  0.6313  0.6094  0.6094  0.6248  0.6248

 Free energy of the ion-electron system (eV)
  ---------------------------------------------------
  alpha Z        PSCENC =         0.00563328
  Ewald energy   TEWEN  =       -11.12144892
  -Hartree energ DENC   =      -486.41824148
  -exchange      EXHF   =         0.00000000
  -V(xc)+E(xc)   XCENC  =        30.70071239
  PAW double counting   =       458.08837822     -451.79468739
  entropy T*S    EENTRO =        -0.00560363
  eigenvalues    EBANDS =      -122.28320468
  atomic energy  EATOM  =       579.50312721
  Solvation  Ediel_sol  =         0.00000000
  ---------------------------------------------------
  free energy    TOTEN  =        -3.32533500 eV

  energy without entropy =       -3.31973138  energy(sigma->0) =       -3.32253319


--------------------------------------------------------------------------------------------------------




--------------------------------------- Iteration      3(  62)  ---------------------------------------


    POTLOK:  cpu time    8.7497: real time    8.7559
    SETDIJ:  cpu time    0.0610: real time    0.0617
     EDDAV:  cpu time    7.9268: real time    7.9668
       DOS:  cpu time    0.0010: real time    0.0005
    --------------------------------------------
      LOOP:  cpu time   16.7375: real time   16.7848

 eigenvalue-minimisations  :    96
 total energy-change (2. order) : 0.5944312E-06  (-0.8488766E-07)
 number of electron       9.9999998 magnetization       3.9423440
 augmentation part        0.4878175 magnetization       0.5215825

 Free energy of the ion-electron system (eV)
  ---------------------------------------------------
  alpha Z        PSCENC =         0.00563328
  Ewald energy   TEWEN  =       -11.12144892
  -Hartree energ DENC   =      -486.41803121
  -exchange      EXHF   =         0.00000000
  -V(xc)+E(xc)   XCENC  =        30.70068437
  PAW double counting   =       458.08743288     -451.79374356
  entropy T*S    EENTRO =        -0.00559795
  eigenvalues    EBANDS =      -122.28339051
  atomic energy  EATOM  =       579.50312721
  Solvation  Ediel_sol  =         0.00000000
  ---------------------------------------------------
  free energy    TOTEN  =        -3.32533441 eV

  energy without entropy =       -3.31973646  energy(sigma->0) =       -3.32253544


--------------------------------------------------------------------------------------------------------




 average (electrostatic) potential at core
  the test charge radii are     0.6768  0.6557
  (the norm of the test charge is              1.0000)
       1-127.6966       2-127.0201
 
 
 
 E-fermi :  -6.2269     XC(G=0):  -0.0362     alpha+bet : -0.0075


 spin component 1

 k-point     1 :       0.0000    0.0000    0.0000
  band No.  band energies     occupation 
      1     -24.8452      1.00000
      2     -14.6493      1.00000
      3     -10.5285      1.00000
      4     -10.5283      1.00000
      5      -8.4627      1.00000
      6      -6.3043      0.98570
      7      -6.3016      0.98270
      8      -5.7246      0.00000
      9      -0.3970      0.00000
     10      -0.0531      0.00000
     11       0.0046      0.00000
     12       0.1299      0.00000

 spin component 2

 k-point     1 :       0.0000    0.0000    0.0000
  band No.  band energies     occupation 
      1     -21.2566      1.00000
      2     -12.1451      1.00000
      3      -7.2665      1.00000
      4      -6.1513      0.01615
      5      -6.1506      0.01545
      6      -4.8915      0.00000
      7      -3.3128      0.00000
      8      -3.3107      0.00000
      9      -0.0744      0.00000
     10       0.0668      0.00000
     11       0.1539      0.00000
     12       0.1906      0.00000


--------------------------------------------------------------------------------------------------------


 soft charge-density along one line, spin component           1
         0         1         2         3         4         5         6         7         8         9
 total charge-density along one line
 
 soft charge-density along one line, spin component           2
         0         1         2         3         4         5         6         7         8         9
 total charge-density along one line
 
 pseudopotential strength for first ion, spin component:           1
 33.984  35.047  39.583  -0.000   0.000  -0.000  -0.000   0.000
 35.047  36.144  40.784  -0.000   0.000  -0.000  -0.000   0.000
 39.583  40.784  32.875  -0.000   0.000  -0.000  -0.000   0.000
 -0.000  -0.000  -0.000  -7.091  -0.028   0.255  -7.983  -0.033
  0.000   0.000   0.000  -0.028  -7.422  -0.022  -0.033  -8.367
 -0.000  -0.000  -0.000   0.255  -0.022  -7.229   0.295  -0.025
 -0.000  -0.000  -0.000  -7.983  -0.033   0.295  -8.973  -0.038
  0.000   0.000   0.000  -0.033  -8.367  -0.025  -0.038  -9.418
 -0.000  -0.000  -0.000   0.295  -0.025  -8.144   0.343  -0.029
  0.000   0.000   0.000  -1.908   0.047  -0.425  -3.176   0.054
 -0.000  -0.000  -0.000   0.047  -1.357   0.036   0.054  -2.542
  0.000   0.000   0.000  -0.425   0.036  -1.678  -0.489   0.041
 -0.004  -0.004   0.003  -0.000  -0.000  -0.000  -0.000  -0.000
  0.000   0.000  -0.000   0.000  -0.000  -0.000   0.000  -0.000
  0.002   0.002  -0.002   0.000   0.000   0.000   0.000   0.000
  0.000   0.000  -0.000  -0.000  -0.000   0.000  -0.000  -0.000
  0.001   0.001  -0.001   0.000   0.000  -0.000   0.000   0.000
 -0.335  -0.347  -0.040   0.000   0.000   0.000   0.000   0.000
  0.037   0.038   0.004   0.000   0.000   0.000   0.000   0.000
  0.199   0.206   0.024  -0.000  -0.000  -0.000  -0.000  -0.000
  0.028   0.029   0.003   0.000   0.000  -0.000   0.000   0.000
  0.091   0.094   0.011  -0.000  -0.000   0.000  -0.000  -0.000
 pseudopotential strength for first ion, spin component:           2
 33.064  34.099  38.014  -0.000   0.000  -0.000  -0.000   0.000
 34.099  35.167  39.170  -0.000   0.000  -0.000  -0.000   0.000
 38.014  39.170  29.476  -0.000   0.000  -0.000  -0.000   0.000
 -0.000  -0.000  -0.000  -6.436   0.017  -0.154  -7.222   0.020
  0.000   0.000   0.000   0.017  -6.236   0.013   0.020  -6.989
 -0.000  -0.000  -0.000  -0.154   0.013  -6.352  -0.180   0.015
 -0.000  -0.000  -0.000  -7.222   0.020  -0.180  -8.089   0.023
  0.000   0.000   0.000   0.020  -6.989   0.015   0.023  -7.817
 -0.000  -0.000  -0.000  -0.180   0.015  -7.125  -0.210   0.018
  0.000   0.000   0.000  -3.138  -0.036   0.329  -4.595  -0.042
 -0.000  -0.000  -0.000  -0.036  -3.565  -0.028  -0.042  -5.086
  0.000   0.000   0.000   0.329  -0.028  -3.316   0.377  -0.032
  0.035   0.037  -0.020  -0.000  -0.000  -0.000  -0.000  -0.000
 -0.004  -0.004   0.002   0.000  -0.000  -0.000   0.000  -0.000
 -0.021  -0.022   0.012   0.000   0.000   0.000   0.000   0.000
 -0.003  -0.003   0.002  -0.000  -0.000   0.000  -0.000  -0.000
 -0.010  -0.010   0.005   0.000   0.000  -0.000   0.000   0.000
  0.218   0.226   0.037   0.000   0.000   0.000   0.000   0.000
 -0.024  -0.025  -0.004  -0.000   0.000   0.000  -0.000   0.000
 -0.129  -0.134  -0.022  -0.000  -0.000  -0.000  -0.000  -0.000
 -0.019  -0.019  -0.003   0.000   0.000  -0.000   0.000   0.000
 -0.059  -0.061  -0.010  -0.000  -0.000   0.000  -0.000  -0.000
 total augmentation occupancy for first ion, spin component:           1
  1.443   0.129  -0.002  -0.000   0.000  -0.000  -0.001   0.000  -0.001  -0.000   0.000  -0.000  -0.017   0.002   0.010   0.001
  0.129   0.257  -0.001   0.000  -0.000   0.000   0.001  -0.000   0.001   0.000  -0.000   0.000   0.006  -0.001  -0.004  -0.001
 -0.002  -0.001   0.000  -0.000   0.000  -0.000  -0.000   0.000  -0.000  -0.000   0.000  -0.000  -0.000   0.000   0.000   0.000
 -0.000   0.000  -0.000   0.108  -0.009   0.079   0.209  -0.018   0.161   0.005  -0.000   0.004   0.000  -0.000  -0.000  -0.000
  0.000  -0.000   0.000  -0.009   0.005  -0.007  -0.018   0.001  -0.014  -0.000   0.000  -0.000  -0.000   0.000   0.000   0.000
 -0.000   0.000  -0.000   0.079  -0.007   0.065   0.161  -0.014   0.122   0.004  -0.000   0.003   0.000  -0.000  -0.000  -0.000
 -0.001   0.001  -0.000   0.209  -0.018   0.161   0.804   0.001  -0.008   0.016  -0.000   0.003   0.000  -0.000  -0.000  -0.000
  0.000  -0.000   0.000  -0.018   0.001  -0.014   0.001   0.814   0.001  -0.000   0.012  -0.000  -0.000   0.000  -0.000   0.000
 -0.001   0.001  -0.000   0.161  -0.014   0.122  -0.008   0.001   0.808   0.003  -0.000   0.014   0.000  -0.000  -0.000  -0.000
 -0.000   0.000  -0.000   0.005  -0.000   0.004   0.016  -0.000   0.003   0.000  -0.000   0.000   0.000  -0.000  -0.000  -0.000
  0.000  -0.000   0.000  -0.000   0.000  -0.000  -0.000   0.012  -0.000  -0.000   0.000  -0.000  -0.000   0.000  -0.000   0.000
 -0.000   0.000  -0.000   0.004  -0.000   0.003   0.003  -0.000   0.014   0.000  -0.000   0.000   0.000  -0.000  -0.000  -0.000
 -0.017   0.006  -0.000   0.000  -0.000   0.000   0.000  -0.000   0.000   0.000  -0.000   0.000   0.000  -0.000  -0.000  -0.000
  0.002  -0.001   0.000  -0.000   0.000  -0.000  -0.000   0.000  -0.000  -0.000   0.000  -0.000  -0.000   0.000   0.000   0.000
  0.010  -0.004   0.000  -0.000   0.000  -0.000  -0.000  -0.000  -0.000  -0.000  -0.000  -0.000  -0.000   0.000   0.000   0.000
  0.001  -0.001   0.000  -0.000   0.000  -0.000  -0.000   0.000  -0.000  -0.000   0.000  -0.000  -0.000   0.000   0.000   0.000
  0.005  -0.002   0.000  -0.000   0.000  -0.000  -0.000   0.000   0.000  -0.000   0.000   0.000  -0.000   0.000   0.000   0.000
  0.004  -0.003   0.000  -0.000   0.000  -0.000  -0.000   0.000  -0.000  -0.000   0.000  -0.000  -0.000   0.000   0.000   0.000
 -0.000   0.000  -0.000   0.000  -0.000   0.000  -0.000  -0.000   0.000   0.000  -0.000   0.000   0.000  -0.000  -0.000  -0.000
 -0.003   0.002  -0.000   0.000  -0.000   0.000   0.000   0.000   0.000   0.000   0.000   0.000   0.000  -0.000  -0.000  -0.000
 -0.000   0.000  -0.000   0.000  -0.000   0.000   0.000  -0.000   0.000   0.000  -0.000   0.000   0.000  -0.000  -0.000  -0.000
 -0.001   0.001  -0.000   0.000  -0.000   0.000   0.000  -0.000  -0.000   0.000  -0.000  -0.000   0.000  -0.000  -0.000  -0.000
 total augmentation occupancy for first ion, spin component:           2
  1.000  -0.339   0.000   0.000  -0.000   0.000  -0.000   0.000  -0.000   0.000   0.000   0.000  -0.026   0.003   0.015   0.002
 -0.339  -0.239   0.001  -0.000   0.000  -0.000   0.000  -0.000   0.000  -0.000  -0.000  -0.000  -0.003   0.000   0.002   0.000
  0.000   0.001  -0.000   0.000  -0.000   0.000  -0.000   0.000  -0.000   0.000   0.000  -0.000   0.000  -0.000  -0.000  -0.000
  0.000  -0.000   0.000  -0.061   0.005  -0.043  -0.041   0.003  -0.026  -0.002   0.000  -0.001  -0.000   0.000   0.000   0.000
 -0.000   0.000  -0.000   0.005  -0.005   0.004   0.003  -0.007   0.002   0.000  -0.000   0.000   0.000  -0.000  -0.000  -0.000
  0.000  -0.000   0.000  -0.043   0.004  -0.038  -0.026   0.002  -0.027  -0.001   0.000  -0.001  -0.000   0.000   0.000   0.000
 -0.000   0.000  -0.000  -0.041   0.003  -0.026   0.431   0.032  -0.289   0.005   0.001  -0.005   0.000  -0.000  -0.000   0.000
  0.000  -0.000   0.000   0.003  -0.007   0.002   0.032   0.807   0.025   0.001   0.012   0.000   0.000   0.000  -0.000   0.000
 -0.000   0.000  -0.000  -0.026   0.002  -0.027  -0.289   0.025   0.588  -0.005   0.000   0.008   0.000   0.000  -0.000  -0.000
  0.000  -0.000   0.000  -0.002   0.000  -0.001   0.005   0.001  -0.005   0.000   0.000  -0.000  -0.000   0.000   0.000   0.000
  0.000  -0.000   0.000   0.000  -0.000   0.000   0.001   0.012   0.000   0.000   0.000   0.000   0.000   0.000  -0.000   0.000
  0.000  -0.000  -0.000  -0.001   0.000  -0.001  -0.005   0.000   0.008  -0.000   0.000   0.000   0.000   0.000   0.000  -0.000
 -0.026  -0.003   0.000  -0.000   0.000  -0.000   0.000   0.000   0.000  -0.000   0.000   0.000   0.000  -0.000  -0.000  -0.000
  0.003   0.000  -0.000   0.000  -0.000   0.000  -0.000   0.000   0.000   0.000   0.000   0.000  -0.000   0.000   0.000   0.000
  0.015   0.002  -0.000   0.000  -0.000   0.000  -0.000  -0.000  -0.000   0.000  -0.000   0.000  -0.000   0.000   0.000   0.000
  0.002   0.000  -0.000   0.000  -0.000   0.000   0.000   0.000  -0.000   0.000   0.000  -0.000  -0.000   0.000   0.000   0.000
  0.007   0.001  -0.000   0.000  -0.000   0.000  -0.000  -0.000   0.000  -0.000  -0.000   0.000  -0.000   0.000   0.000   0.000
  0.009   0.002  -0.000   0.000  -0.000   0.000  -0.000   0.000  -0.000   0.000  -0.000  -0.000  -0.000   0.000   0.000   0.000
 -0.001  -0.000   0.000  -0.000   0.000  -0.000  -0.000  -0.000   0.000  -0.000  -0.000  -0.000   0.000  -0.000  -0.000  -0.000
 -0.005  -0.001   0.000  -0.000   0.000  -0.000   0.000   0.000   0.000  -0.000   0.000   0.000   0.000  -0.000  -0.000  -0.000
 -0.001  -0.000   0.000  -0.000   0.000  -0.000  -0.000  -0.000  -0.000  -0.000  -0.000  -0.000   0.000  -0.000  -0.000  -0.000
 -0.002  -0.000   0.000  -0.000   0.000  -0.000   0.000   0.000  -0.000   0.000   0.000  -0.000   0.000  -0.000  -0.000  -0.000


------------------------ aborting loop because EDIFF is reached ----------------------------------------


    CHARGE:  cpu time    1.1308: real time    1.1395
    FORLOC:  cpu time    0.1680: real time    0.1688
    FORNL :  cpu time    1.8767: real time    1.8804
    STRESS:  cpu time    5.8971: real time    5.8995
    FORCOR:  cpu time    8.2817: real time    8.2859
    FORHAR:  cpu time    1.0298: real time    1.0497
    MIXING:  cpu time    1.0638: real time    1.0645
    OFIELD:  cpu time    0.0000: real time    0.0006

 ---------------------------------------------------------------------------------------------

         DFTD3 V3.0 Rev 1        
 Edisp (eV)   -0.00032

 E6    (eV) :    -0.0003
 E8    (eV) :    -0.0000
 % E8        : 11.35
    FORVDW:  cpu time    0.0110: real time    0.0116

  FORCE on cell =-STRESS in cart. coord.  units (eV):
  Direction    XX          YY          ZZ          XY          YZ          ZX
  --------------------------------------------------------------------------------------
  Alpha Z     0.00563     0.00563     0.00563
  Ewald       0.16346     6.09990   -17.38483    23.71255   -11.83857   -10.57925
  Hartree   164.75355   174.84100   146.95676    31.94989   -11.86196   -10.87965
  E(xc)     -43.84869   -43.85546   -43.92858    -0.03151    -0.00544     0.00145
  Local    -373.66379  -402.30790  -340.04080   -83.09763    24.80397    23.55017
  n-local    60.62559    60.22448    61.43432    -0.68546     0.10081     0.06138
  augment    15.41494    17.52492    13.89066     4.19270    -0.32197    -0.33832
  Kinetic   176.49634   187.41162   179.01821    23.95455    -0.87544    -1.81449
  Fock        0.00000     0.00000     0.00000     0.00000     0.00000     0.00000
  vdW        -0.00080    -0.00101    -0.00020    -0.00090     0.00045     0.00040
  -------------------------------------------------------------------------------------
  Total      -0.05376    -0.05681    -0.04883    -0.00580     0.00184     0.00170
  in kB      -0.00319    -0.00337    -0.00290    -0.00034     0.00011     0.00010
  external pressure =       -0.00 kB  Pullay stress =        0.00 kB


 VOLUME and BASIS-vectors are now :
 -----------------------------------------------------------------------------
  energy-cutoff  :      520.00
  volume of cell :    27000.00
      direct lattice vectors                 reciprocal lattice vectors
    30.000000000  0.000000000  0.000000000     0.033333333  0.000000000  0.000000000
     0.000000000 30.000000000  0.000000000     0.000000000  0.033333333  0.000000000
     0.000000000  0.000000000 30.000000000     0.000000000  0.000000000  0.033333333

  length of vectors
    30.000000000 30.000000000 30.000000000     0.033333333  0.033333333  0.033333333


 FORCES acting on ions
    electron-ion (+dipol)            ewald-force                    non-local-force                 convergence-correction
 -----------------------------------------------------------------------------------------------
   0.551E+01 0.617E+01 -.276E+01   -.554E+01 -.619E+01 0.277E+01   0.176E-01 0.232E-01 -.302E-02   0.346E-02 0.389E-02 -.169E-02
   -.553E+01 -.620E+01 0.277E+01   0.554E+01 0.619E+01 -.277E+01   -.360E-02 0.124E-02 0.429E-03   0.226E-02 0.251E-02 -.108E-02
 -----------------------------------------------------------------------------------------------
   -.199E-01 -.300E-01 0.474E-02   0.000E+00 0.000E+00 0.000E+00   0.140E-01 0.245E-01 -.259E-02   0.572E-02 0.641E-02 -.277E-02
 
 
 POSITION                                       TOTAL-FORCE (eV/Angst)
 -----------------------------------------------------------------------------------
     14.37833     14.22863     18.12534         0.000452      0.000768     -0.000398
     18.28084     18.59953     16.18140        -0.000452     -0.000768      0.000398
 -----------------------------------------------------------------------------------
    total drift:                               -0.000246      0.000934     -0.000614


--------------------------------------------------------------------------------------------------------



  FREE ENERGIE OF THE ION-ELECTRON SYSTEM (eV)
  ---------------------------------------------------
  free  energy   TOTEN  =        -3.32565747 eV

  energy  without entropy=       -3.32005952  energy(sigma->0) =       -3.32285850
 
 d Force = 0.1966594E-03[ 0.552E-05, 0.388E-03]  d Energy = 0.1522557E+01-0.152E+01
 d Force =-0.5060988E-01[-0.507E-01,-0.506E-01]  d Ewald  =-0.5060985E-01-0.231E-07


--------------------------------------------------------------------------------------------------------


    POTLOK:  cpu time    8.7937: real time    8.8163


--------------------------------------------------------------------------------------------------------


 stress matrix after NEB project (eV)
     -0.05376     -0.00580      0.00170
     -0.00580     -0.05681      0.00184
      0.00170      0.00184     -0.04883
  FORCES: max atom, RMS     0.000975    0.000975
  FORCE total and by dimension    0.001379    0.000768
  Stress total and by dimension    0.092640    0.056811


--------------------------------------------------------------------------------------------------------


  
 reached required accuracy - stopping structural energy minimisation
     LOOP+:  cpu time 1074.7396: real time 1077.4882
    4ORBIT:  cpu time    0.0000: real time    0.0000

 total amount of memory used by VASP MPI-rank0   784908. kBytes
=======================================================================

   base      :      30000. kBytes
   nonlr-proj:        750. kBytes
   fftplans  :     211127. kBytes
   grid      :     531349. kBytes
   one-center:         46. kBytes
   wavefun   :      11636. kBytes
 
  
  
 General timing and accounting informations for this job:
 ========================================================
  
                  Total CPU time used (sec):     5206.953
                            User time (sec):     4868.542
                          System time (sec):      338.411
                         Elapsed time (sec):     9386.851
  
                   Maximum memory used (kb):     2159340.
                   Average memory used (kb):           0.
  
                          Minor page faults:       900620
                          Major page faults:            0
                 Voluntary context switches:     53969017
