<?xml version="1.0" encoding="ISO-8859-1"?>
<modeling>
 <generator>
  <i name="program" type="string">vasp </i>
  <i name="version" type="string">5.4.4.18Apr17-6-g9f103f2a35  </i>
  <i name="subversion" type="string">(build May 21 2019 18:55:53) complex            parallel </i>
  <i name="platform" type="string">IFC19_impi </i>
  <i name="date" type="string">2025 08 28 </i>
  <i name="time" type="string">10:32:07 </i>
 </generator>
 <incar>
  <i type="string" name="SYSTEM"> Co–organic framework</i>
  <i type="string" name="PREC">accurate   (precision level)</i>
  <i type="string" name="ALGO"> Fast       (SCF minimisation algorithm</i>
  <i type="int" name="ISPIN">     2</i>
  <i type="int" name="NELM">   100</i>
  <i type="int" name="NELMIN">     5</i>
  <i type="int" name="IBRION">     2</i>
  <i name="EDIFF">      0.00000100</i>
  <i name="EDIFFG">     -0.00500000</i>
  <i type="int" name="NSW">  1000</i>
  <i type="int" name="ISIF">     2</i>
  <i type="int" name="ISYM">     0</i>
  <i type="int" name="NBLOCK">     1</i>
  <i name="ENCUT">    520.00000000</i>
  <v name="MAGMOM">      0.00000000      0.00000000</v>
  <i type="string" name="LREAL"> Auto       (Projection operators: autom</i>
  <i type="int" name="ISMEAR">     0</i>
  <i name="SIGMA">      0.05000000</i>
  <i type="logical" name="LWAVE"> F  </i>
  <i type="logical" name="LCHARG"> T  </i>
  <v type="int" name="KPOINT_BSE">    -1     0     0     0</v>
  <i type="int" name="NELM">   100</i>
 </incar>
 <structure name="primitive_cell" >
  <crystal>
   <varray name="basis" >
    <v>      30.00000000       0.00000000       0.00000000 </v>
    <v>       0.00000000      30.00000000       0.00000000 </v>
    <v>       0.00000000       0.00000000      30.00000000 </v>
   </varray>
   <i name="volume">  27000.00000000 </i>
   <varray name="rec_basis" >
    <v>       0.03333333       0.00000000       0.00000000 </v>
    <v>       0.00000000       0.03333333       0.00000000 </v>
    <v>       0.00000000       0.00000000       0.03333333 </v>
   </varray>
  </crystal>
  <varray name="positions" >
   <v>       0.47980337       0.47486042      -0.39609316 </v>
   <v>      -0.39116437      -0.38058842      -0.46034884 </v>
  </varray>
 </structure>
 <varray name="primitive_index" >
  <v type="int" >        1 </v>
  <v type="int" >        2 </v>
 </varray>
 <kpoints>
  <generation param="Gamma">
   <v type="int" name="divisions">       1        1        1 </v>
   <v name="usershift">      0.00000000       0.00000000       0.00000000 </v>
   <v name="genvec1">      1.00000000       0.00000000       0.00000000 </v>
   <v name="genvec2">      0.00000000       1.00000000       0.00000000 </v>
   <v name="genvec3">      0.00000000       0.00000000       1.00000000 </v>
   <v name="shift">      0.00000000       0.00000000       0.00000000 </v>
  </generation>
  <varray name="kpointlist" >
   <v>       0.00000000       0.00000000       0.00000000 </v>
  </varray>
  <varray name="weights" >
   <v>       1.00000000 </v>
  </varray>
 </kpoints>
 <parameters>
  <separator name="general" >
   <i type="string" name="SYSTEM">Co–organic framework</i>
   <i type="logical" name="LCOMPAT"> F  </i>
  </separator>
  <separator name="electronic" >
   <i type="string" name="PREC">accura</i>
   <i name="ENMAX">    520.00000000</i>
   <i name="ENAUG">   1213.93000000</i>
   <i name="EDIFF">      0.00000100</i>
   <i type="int" name="IALGO">    68</i>
   <i type="int" name="IWAVPR">    11</i>
   <i type="int" name="NBANDS">    12</i>
   <i name="NELECT">     10.00000000</i>
   <i type="int" name="TURBO">     0</i>
   <i type="int" name="IRESTART">     0</i>
   <i type="int" name="NREBOOT">     0</i>
   <i type="int" name="NMIN">     0</i>
   <i name="EREF">      0.00000000</i>
   <separator name="electronic smearing" >
    <i type="int" name="ISMEAR">     0</i>
    <i name="SIGMA">      0.05000000</i>
    <i name="KSPACING">      0.50000000</i>
    <i type="logical" name="KGAMMA"> T  </i>
   </separator>
   <separator name="electronic projectors" >
    <i type="logical" name="LREAL"> T  </i>
    <v name="ROPT">     -0.00025000     -0.00025000</v>
    <i type="int" name="LMAXPAW">  -100</i>
    <i type="int" name="LMAXMIX">     2</i>
    <i type="logical" name="NLSPLINE"> F  </i>
   </separator>
   <separator name="electronic startup" >
    <i type="int" name="ISTART">     0</i>
    <i type="int" name="ICHARG">     2</i>
    <i type="int" name="INIWAV">     1</i>
   </separator>
   <separator name="electronic spin" >
    <i type="int" name="ISPIN">     2</i>
    <i type="logical" name="LNONCOLLINEAR"> F  </i>
    <v name="MAGMOM">      0.00000000      0.00000000</v>
    <i name="NUPDOWN">     -1.00000000</i>
    <i type="logical" name="LSORBIT"> F  </i>
    <v name="SAXIS">      0.00000000      0.00000000      1.00000000</v>
    <i type="logical" name="LSPIRAL"> F  </i>
    <v name="QSPIRAL">      0.00000000      0.00000000      0.00000000</v>
    <i type="logical" name="LZEROZ"> F  </i>
   </separator>
   <separator name="electronic exchange-correlation" >
    <i type="logical" name="LASPH"> F  </i>
    <i type="logical" name="LMETAGGA"> F  </i>
   </separator>
   <separator name="electronic convergence" >
    <i type="int" name="NELM">   100</i>
    <i type="int" name="NELMDL">     0</i>
    <i type="int" name="NELMIN">     5</i>
    <i name="ENINI">    520.00000000</i>
    <separator name="electronic convergence detail" >
     <i type="logical" name="LDIAG"> T  </i>
     <i type="logical" name="LSUBROT"> F  </i>
     <i name="WEIMIN">      0.00100000</i>
     <i name="EBREAK">      0.00000002</i>
     <i name="DEPER">      0.30000000</i>
     <i type="int" name="NRMM">     4</i>
     <i name="TIME">      0.40000000</i>
    </separator>
   </separator>
   <separator name="electronic mixer" >
    <i name="AMIX">      0.40000000</i>
    <i name="BMIX">      1.00000000</i>
    <i name="AMIN">      0.10000000</i>
    <i name="AMIX_MAG">      1.60000000</i>
    <i name="BMIX_MAG">      1.00000000</i>
    <separator name="electronic mixer details" >
     <i type="int" name="IMIX">     4</i>
     <i type="logical" name="MIXFIRST"> F  </i>
     <i type="int" name="MAXMIX">   -45</i>
     <i name="WC">    100.00000000</i>
     <i type="int" name="INIMIX">     1</i>
     <i type="int" name="MIXPRE">     1</i>
     <i type="int" name="MREMOVE">     5</i>
    </separator>
   </separator>
   <separator name="electronic dipolcorrection" >
    <i type="logical" name="LDIPOL"> F  </i>
    <i type="logical" name="LMONO"> F  </i>
    <i type="int" name="IDIPOL">     0</i>
    <i name="EPSILON">      1.00000000</i>
    <v name="DIPOL">   -100.00000000   -100.00000000   -100.00000000</v>
    <i name="EFIELD">      0.00000000</i>
   </separator>
  </separator>
  <separator name="grids" >
   <i type="int" name="NGX">   224</i>
   <i type="int" name="NGY">   224</i>
   <i type="int" name="NGZ">   224</i>
   <i type="int" name="NGXF">   448</i>
   <i type="int" name="NGYF">   448</i>
   <i type="int" name="NGZF">   448</i>
   <i type="logical" name="ADDGRID"> F  </i>
  </separator>
  <separator name="ionic" >
   <i type="int" name="NSW">  1000</i>
   <i type="int" name="IBRION">     2</i>
   <i type="int" name="MDALGO">     0</i>
   <i type="int" name="ISIF">     2</i>
   <i name="PSTRESS">      0.00000000</i>
   <i name="EDIFFG">     -0.00500000</i>
   <i type="int" name="NFREE">     1</i>
   <i name="POTIM">      0.50000000</i>
   <i name="SMASS">     -3.00000000</i>
   <i name="SCALEE">      1.00000000</i>
  </separator>
  <separator name="ionic md" >
   <i name="TEBEG">      0.00010000</i>
   <i name="TEEND">      0.00010000</i>
   <i type="int" name="NBLOCK">     1</i>
   <i type="int" name="KBLOCK">  1000</i>
   <i type="int" name="NPACO">   256</i>
   <i name="APACO">     16.00000000</i>
  </separator>
  <separator name="symmetry" >
   <i type="int" name="ISYM">     0</i>
   <i name="SYMPREC">      0.00001000</i>
  </separator>
  <separator name="dos" >
   <i type="int" name="LORBIT">     0</i>
   <v name="RWIGS">     -1.00000000     -1.00000000</v>
   <i type="int" name="NEDOS">   301</i>
   <i name="EMIN">     10.00000000</i>
   <i name="EMAX">    -10.00000000</i>
   <i name="EFERMI">      0.00000000</i>
  </separator>
  <separator name="writing" >
   <i type="int" name="NWRITE">     2</i>
   <i type="logical" name="LWAVE"> F  </i>
   <i type="logical" name="LDOWNSAMPLE"> F  </i>
   <i type="logical" name="LCHARG"> T  </i>
   <i type="logical" name="LPARD"> F  </i>
   <i type="logical" name="LVTOT"> F  </i>
   <i type="logical" name="LVHAR"> F  </i>
   <i type="logical" name="LELF"> F  </i>
   <i type="logical" name="LOPTICS"> F  </i>
   <v name="STM">      0.00000000      0.00000000      0.00000000      0.00000000      0.00000000      0.00000000      0.00000000</v>
  </separator>
  <separator name="performance" >
   <i type="int" name="NPAR">     6</i>
   <i type="int" name="NSIM">     4</i>
   <i type="int" name="NBLK">    -1</i>
   <i type="logical" name="LPLANE"> T  </i>
   <i type="logical" name="LSCALAPACK"> F  </i>
   <i type="logical" name="LSCAAWARE"> F  </i>
   <i type="logical" name="LSCALU"> F  </i>
   <i type="logical" name="LASYNC"> F  </i>
   <i type="logical" name="LORBITALREAL"> F  </i>
  </separator>
  <separator name="miscellaneous" >
   <i type="int" name="IDIOT">     3</i>
   <i type="int" name="ISPECIAL">     0</i>
   <i type="logical" name="LMUSIC"> F  </i>
   <v name="POMASS">     16.00000000     12.01100000</v>
   <v name="DARWINR">      0.00000000      0.00000000</v>
   <v name="DARWINV">      1.00000000      1.00000000</v>
   <i type="logical" name="LCORR"> T  </i>
  </separator>
  <i type="logical" name="GGA_COMPAT"> T  </i>
  <i type="logical" name="LBERRY"> F  </i>
  <i type="int" name="ICORELEVEL">     0</i>
  <i type="logical" name="LDAU"> F  </i>
  <i type="int" name="I_CONSTRAINED_M">     0</i>
  <separator name="electronic exchange-correlation" >
   <i type="string" name="GGA">--</i>
   <i type="int" name="VOSKOWN">     0</i>
   <i type="logical" name="LHFCALC"> F  </i>
   <i type="string" name="PRECFOCK"></i>
   <i type="logical" name="LSYMGRAD"> F  </i>
   <i type="logical" name="LHFONE"> F  </i>
   <i type="logical" name="LRHFCALC"> F  </i>
   <i type="logical" name="LTHOMAS"> F  </i>
   <i type="logical" name="LMODELHF"> F  </i>
   <i name="ENCUT4O">     -1.00000000</i>
   <i type="int" name="EXXOEP">     0</i>
   <i type="int" name="FOURORBIT">     0</i>
   <i name="AEXX">      0.00000000</i>
   <i name="HFALPHA">      0.00000000</i>
   <i name="MCALPHA">      0.00000000</i>
   <i name="ALDAX">      1.00000000</i>
   <i name="AGGAX">      1.00000000</i>
   <i name="ALDAC">      1.00000000</i>
   <i name="AGGAC">      1.00000000</i>
   <i type="int" name="NKREDX">     1</i>
   <i type="int" name="NKREDY">     1</i>
   <i type="int" name="NKREDZ">     1</i>
   <i type="logical" name="SHIFTRED"> F  </i>
   <i type="logical" name="ODDONLY"> F  </i>
   <i type="logical" name="EVENONLY"> F  </i>
   <i type="int" name="LMAXFOCK">     0</i>
   <i type="int" name="NMAXFOCKAE">     0</i>
   <i type="logical" name="LFOCKAEDFT"> F  </i>
   <i name="HFSCREEN">      0.00000000</i>
   <i name="HFSCREENC">      0.00000000</i>
   <i type="int" name="NBANDSGWLOW">     0</i>
  </separator>
  <separator name="vdW DFT" >
   <i type="logical" name="LUSE_VDW"> F  </i>
   <i name="Zab_VDW">     -0.84910000</i>
   <i name="PARAM1">      0.12340000</i>
   <i name="PARAM2">      1.00000000</i>
   <i name="PARAM3">      0.00000000</i>
  </separator>
  <separator name="model GW" >
   <i type="int" name="MODEL_GW">     0</i>
   <i name="MODEL_EPS0">   8100.00000000</i>
   <i name="MODEL_ALPHA">      1.00000000</i>
  </separator>
  <separator name="linear response parameters" >
   <i type="logical" name="LEPSILON"> F  </i>
   <i type="logical" name="LRPA"> F  </i>
   <i type="logical" name="LNABLA"> F  </i>
   <i type="logical" name="LVEL"> F  </i>
   <i type="int" name="KINTER">     0</i>
   <i name="CSHIFT">      0.10000000</i>
   <i name="OMEGAMAX">     -1.00000000</i>
   <i name="DEG_THRESHOLD">      0.00200000</i>
   <i name="RTIME">     -0.10000000</i>
   <i name="WPLASMAI">      0.00000000</i>
   <v name="DFIELD">      0.00000000      0.00000000      0.00000000</v>
   <v name="WPLASMA">      0.00000000      0.00000000      0.00000000      0.00000000      0.00000000      0.00000000      0.00000000      0.00000000      0.00000000</v>
  </separator>
  <separator name="orbital magnetization" >
   <i type="logical" name="NUCIND"> F  </i>
   <v name="MAGPOS">      0.00000000      0.00000000      0.00000000</v>
   <i type="logical" name="LNICSALL"> T  </i>
   <i type="logical" name="ORBITALMAG"> F  </i>
   <i type="logical" name="LMAGBLOCH"> F  </i>
   <i type="logical" name="LCHIMAG"> F  </i>
   <i type="logical" name="LGAUGE"> T  </i>
   <i type="int" name="MAGATOM">     0</i>
   <v name="MAGDIPOL">      0.00000000      0.00000000      0.00000000</v>
   <v name="AVECCONST">      0.00000000      0.00000000      0.00000000</v>
  </separator>
  <separator name="response functions" >
   <i type="logical" name="LADDER"> F  </i>
   <i type="logical" name="LRPAFORCE"> F  </i>
   <i type="logical" name="LFXC"> F  </i>
   <i type="logical" name="LHARTREE"> T  </i>
   <i type="int" name="IBSE">     0</i>
   <v type="int" name="KPOINT">    -1     0     0     0</v>
   <i type="logical" name="LTCTE"> F  </i>
   <i type="logical" name="LTETE"> F  </i>
   <i type="logical" name="LTRIPLET"> F  </i>
   <i type="logical" name="LFXCEPS"> F  </i>
   <i type="logical" name="LFXHEG"> F  </i>
   <i type="int" name="NATURALO">     2</i>
   <i type="logical" name="L2ORDER"> F  </i>
   <i type="logical" name="LMP2LT"> F  </i>
   <i type="logical" name="LUSEW"> F  </i>
   <i name="ENCUTGW">     -2.00000000</i>
   <i name="ENCUTGWSOFT">     -2.00000000</i>
   <i name="ENCUTLF">     -1.00000000</i>
   <i type="int" name="LMAXMP2">    -1</i>
   <i name="SCISSOR">      0.00000000</i>
   <i type="int" name="NOMEGA">     0</i>
   <i type="int" name="NOMEGAR">     0</i>
   <i type="int" name="NBANDSGW">    -1</i>
   <i type="int" name="NBANDSO">    -1</i>
   <i type="int" name="NBANDSV">    -1</i>
   <i type="int" name="NELM">   100</i>
   <i type="int" name="NELMHF">     1</i>
   <i type="int" name="DIM">     3</i>
   <i type="int" name="ANTIRES">     0</i>
   <i name="OMEGAMAX">    -30.00000000</i>
   <i name="OMEGAMIN">    -30.00000000</i>
   <i name="OMEGATL">   -200.00000000</i>
   <i type="int" name="OMEGAGRID">   140</i>
   <i name="CSHIFT">     -0.10000000</i>
   <i type="logical" name="SELFENERGY"> F  </i>
   <i type="logical" name="LSPECTRAL"> F  </i>
   <i type="logical" name="LSPECTRALGW"> F  </i>
   <i type="logical" name="LSINGLES"> F  </i>
   <i type="logical" name="LFERMIGW"> F  </i>
   <i type="logical" name="ODDONLYGW"> F  </i>
   <i type="logical" name="EVENONLYGW"> F  </i>
   <i type="int" name="NKREDLFX">     1</i>
   <i type="int" name="NKREDLFY">     1</i>
   <i type="int" name="NKREDLFZ">     1</i>
   <i type="int" name="MAXMEM">  2800</i>
   <i type="int" name="TELESCOPE">     0</i>
   <i type="int" name="TAUPAR">     1</i>
   <i type="int" name="OMEGAPAR">    -1</i>
   <i name="LAMBDA">      1.00000000</i>
  </separator>
  <separator name="External order field" >
   <i name="OFIELD_KAPPA">      0.00000000</i>
   <v name="OFIELD_K">      0.00000000      0.00000000      0.00000000</v>
   <i name="OFIELD_Q6_NEAR">      0.00000000</i>
   <i name="OFIELD_Q6_FAR">      0.00000000</i>
   <i name="OFIELD_A">      0.00000000</i>
  </separator>
  <separator name="solvation model" >
   <i type="logical" name="LSOL"> F  </i>
  </separator>
 </parameters>
 <atominfo>
  <atoms>       2 </atoms>
  <types>       2 </types>
  <array name="atoms" >
   <dimension dim="1">ion</dimension>
   <field type="string">element</field>
   <field type="int">atomtype</field>
   <set>
    <rc><c>O </c><c>   1</c></rc>
    <rc><c>C </c><c>   2</c></rc>
   </set>
  </array>
  <array name="atomtypes" >
   <dimension dim="1">type</dimension>
   <field type="int">atomspertype</field>
   <field type="string">element</field>
   <field>mass</field>
   <field>valence</field>
   <field type="string">pseudopotential</field>
   <set>
    <rc><c>   1</c><c>O </c><c>     16.00000000</c><c>      6.00000000</c><c>  PAW_PBE O_GW_new 19Mar2012            </c></rc>
    <rc><c>   1</c><c>C </c><c>     12.01100000</c><c>      4.00000000</c><c>  PAW_PBE C_GW_new 19Mar2012            </c></rc>
   </set>
  </array>
 </atominfo>
 <structure name="initialpos" >
  <crystal>
   <varray name="basis" >
    <v>      30.00000000       0.00000000       0.00000000 </v>
    <v>       0.00000000      30.00000000       0.00000000 </v>
    <v>       0.00000000       0.00000000      30.00000000 </v>
   </varray>
   <i name="volume">  27000.00000000 </i>
   <varray name="rec_basis" >
    <v>       0.03333333       0.00000000       0.00000000 </v>
    <v>       0.00000000       0.03333333       0.00000000 </v>
    <v>       0.00000000       0.00000000       0.03333333 </v>
   </varray>
  </crystal>
  <varray name="positions" >
   <v>       0.47980337       0.47486042       0.60390684 </v>
   <v>       0.60883563       0.61941158       0.53965116 </v>
  </varray>
 </structure>
 <calculation>
  <scstep>
   <time name="dav">    7.98    7.98</time>
   <time name="total">   16.71   16.71</time>
   <energy>
    <i name="alphaZ">      0.00563328 </i>
    <i name="ewald">    -10.68537377 </i>
    <i name="hartreedc">   -482.11065285 </i>
    <i name="XCdc">     29.02661077 </i>
    <i name="pawpsdc">    463.69512993 </i>
    <i name="pawaedc">   -457.43959568 </i>
    <i name="eentropy">     -0.06089022 </i>
    <i name="bandstr">    -59.10227058 </i>
    <i name="atom">    579.50312721 </i>
    <i name="e_fr_energy">     62.83171809 </i>
    <i name="e_wo_entrp">     62.89260830 </i>
    <i name="e_0_energy">     62.86216319 </i>
   </energy>
  </scstep>
  <scstep>
   <time name="dav">    6.24    6.25</time>
   <time name="total">    6.24    6.25</time>
   <energy>
    <i name="e_fr_energy">     36.80489787 </i>
    <i name="e_wo_entrp">     36.81480707 </i>
    <i name="e_0_energy">     36.80985247 </i>
   </energy>
  </scstep>
  <scstep>
   <time name="dav">    7.91    7.94</time>
   <time name="total">    7.91    7.94</time>
   <energy>
    <i name="e_fr_energy">      4.66590472 </i>
    <i name="e_wo_entrp">      4.66590472 </i>
    <i name="e_0_energy">      4.66590472 </i>
   </energy>
  </scstep>
  <scstep>
   <time name="dav">    4.55    4.57</time>
   <time name="total">    4.55    4.57</time>
   <energy>
    <i name="e_fr_energy">     -7.17624116 </i>
    <i name="e_wo_entrp">     -7.17624116 </i>
    <i name="e_0_energy">     -7.17624116 </i>
   </energy>
  </scstep>
  <scstep>
   <time name="dav">    4.56    4.56</time>
   <time name="total">    5.77    5.78</time>
   <energy>
    <i name="e_fr_energy">     -7.48580262 </i>
    <i name="e_wo_entrp">     -7.48580262 </i>
    <i name="e_0_energy">     -7.48580262 </i>
   </energy>
  </scstep>
  <scstep>
   <time name="diag">    1.10    1.10</time>
   <time name="diis">    3.77    3.77</time>
   <time name="orth">    0.05    0.05</time>
   <time name="total">   14.92   14.93</time>
   <energy>
    <i name="e_fr_energy">    -41.22884398 </i>
    <i name="e_wo_entrp">    -41.22884398 </i>
    <i name="e_0_energy">    -41.22884398 </i>
   </energy>
  </scstep>
  <scstep>
   <time name="diag">    1.10    1.10</time>
   <time name="diis">    3.94    3.94</time>
   <time name="orth">    0.05    0.05</time>
   <time name="total">   15.32   15.32</time>
   <energy>
    <i name="e_fr_energy">     -1.38394122 </i>
    <i name="e_wo_entrp">     -1.38309415 </i>
    <i name="e_0_energy">     -1.38351768 </i>
   </energy>
  </scstep>
  <scstep>
   <time name="diag">    1.11    1.11</time>
   <time name="diis">    4.18    4.18</time>
   <time name="orth">    0.04    0.05</time>
   <time name="total">   15.36   15.36</time>
   <energy>
    <i name="e_fr_energy">     -6.78970155 </i>
    <i name="e_wo_entrp">     -6.78970155 </i>
    <i name="e_0_energy">     -6.78970155 </i>
   </energy>
  </scstep>
  <scstep>
   <time name="diag">    1.10    1.10</time>
   <time name="diis">    4.35    4.35</time>
   <time name="orth">    0.05    0.05</time>
   <time name="total">   15.53   15.54</time>
   <energy>
    <i name="e_fr_energy">     -5.15502259 </i>
    <i name="e_wo_entrp">     -5.15502259 </i>
    <i name="e_0_energy">     -5.15502259 </i>
   </energy>
  </scstep>
  <scstep>
   <time name="diag">    1.10    1.11</time>
   <time name="diis">    4.45    4.45</time>
   <time name="orth">    0.04    0.05</time>
   <time name="total">   15.63   15.64</time>
   <energy>
    <i name="e_fr_energy">     -3.01164632 </i>
    <i name="e_wo_entrp">     -3.01164632 </i>
    <i name="e_0_energy">     -3.01164632 </i>
   </energy>
  </scstep>
  <scstep>
   <time name="diag">    1.10    1.10</time>
   <time name="diis">    3.78    3.78</time>
   <time name="orth">    0.05    0.05</time>
   <time name="total">   14.97   14.97</time>
   <energy>
    <i name="e_fr_energy">     -3.51187778 </i>
    <i name="e_wo_entrp">     -3.51187778 </i>
    <i name="e_0_energy">     -3.51187778 </i>
   </energy>
  </scstep>
  <scstep>
   <time name="diag">    1.10    1.10</time>
   <time name="diis">    4.34    4.34</time>
   <time name="orth">    0.05    0.05</time>
   <time name="total">   15.76   15.77</time>
   <energy>
    <i name="e_fr_energy">     -1.34526082 </i>
    <i name="e_wo_entrp">     -1.34446195 </i>
    <i name="e_0_energy">     -1.34486138 </i>
   </energy>
  </scstep>
  <scstep>
   <time name="diag">    1.10    1.10</time>
   <time name="diis">    3.79    3.79</time>
   <time name="orth">    0.04    0.05</time>
   <time name="total">   15.21   15.22</time>
   <energy>
    <i name="e_fr_energy">     -0.97151436 </i>
    <i name="e_wo_entrp">     -0.97151343 </i>
    <i name="e_0_energy">     -0.97151390 </i>
   </energy>
  </scstep>
  <scstep>
   <time name="diag">    1.10    1.10</time>
   <time name="diis">    3.73    3.73</time>
   <time name="orth">    0.05    0.05</time>
   <time name="total">   15.18   15.18</time>
   <energy>
    <i name="e_fr_energy">     -0.74451113 </i>
    <i name="e_wo_entrp">     -0.74195984 </i>
    <i name="e_0_energy">     -0.74323549 </i>
   </energy>
  </scstep>
  <scstep>
   <time name="diag">    1.10    1.10</time>
   <time name="diis">    4.63    4.63</time>
   <time name="orth">    0.04    0.05</time>
   <time name="total">   16.10   16.10</time>
   <energy>
    <i name="e_fr_energy">     -1.33826113 </i>
    <i name="e_wo_entrp">     -1.33744457 </i>
    <i name="e_0_energy">     -1.33785285 </i>
   </energy>
  </scstep>
  <scstep>
   <time name="diag">    1.10    1.10</time>
   <time name="diis">    4.38    4.38</time>
   <time name="orth">    0.05    0.05</time>
   <time name="total">   15.64   15.64</time>
   <energy>
    <i name="e_fr_energy">     -2.98351391 </i>
    <i name="e_wo_entrp">     -2.98351391 </i>
    <i name="e_0_energy">     -2.98351391 </i>
   </energy>
  </scstep>
  <scstep>
   <time name="diag">    1.10    1.10</time>
   <time name="diis">    3.77    3.77</time>
   <time name="orth">    0.05    0.05</time>
   <time name="total">   15.04   15.05</time>
   <energy>
    <i name="e_fr_energy">     -3.50945978 </i>
    <i name="e_wo_entrp">     -3.50945978 </i>
    <i name="e_0_energy">     -3.50945978 </i>
   </energy>
  </scstep>
  <scstep>
   <time name="diag">    1.10    1.10</time>
   <time name="diis">    3.76    3.76</time>
   <time name="orth">    0.05    0.05</time>
   <time name="total">   15.05   15.06</time>
   <energy>
    <i name="e_fr_energy">     -3.15859486 </i>
    <i name="e_wo_entrp">     -3.15859486 </i>
    <i name="e_0_energy">     -3.15859486 </i>
   </energy>
  </scstep>
  <scstep>
   <time name="diag">    1.10    1.10</time>
   <time name="diis">    4.44    4.44</time>
   <time name="orth">    0.04    0.05</time>
   <time name="total">   15.75   15.75</time>
   <energy>
    <i name="e_fr_energy">     -3.12116284 </i>
    <i name="e_wo_entrp">     -3.12116284 </i>
    <i name="e_0_energy">     -3.12116284 </i>
   </energy>
  </scstep>
  <scstep>
   <time name="diag">    1.10    1.10</time>
   <time name="diis">    4.18    4.18</time>
   <time name="orth">    0.05    0.05</time>
   <time name="total">   15.49   15.50</time>
   <energy>
    <i name="e_fr_energy">     -3.45149096 </i>
    <i name="e_wo_entrp">     -3.45149096 </i>
    <i name="e_0_energy">     -3.45149096 </i>
   </energy>
  </scstep>
  <scstep>
   <time name="diag">    1.10    1.10</time>
   <time name="diis">    4.16    4.16</time>
   <time name="orth">    0.05    0.05</time>
   <time name="total">   15.49   15.50</time>
   <energy>
    <i name="e_fr_energy">     -4.09076208 </i>
    <i name="e_wo_entrp">     -4.09076208 </i>
    <i name="e_0_energy">     -4.09076208 </i>
   </energy>
  </scstep>
  <scstep>
   <time name="diag">    1.10    1.10</time>
   <time name="diis">    4.16    4.16</time>
   <time name="orth">    0.04    0.05</time>
   <time name="total">   15.51   15.51</time>
   <energy>
    <i name="e_fr_energy">     -3.86960135 </i>
    <i name="e_wo_entrp">     -3.86960135 </i>
    <i name="e_0_energy">     -3.86960135 </i>
   </energy>
  </scstep>
  <scstep>
   <time name="diag">    1.10    1.10</time>
   <time name="diis">    4.38    4.38</time>
   <time name="orth">    0.04    0.05</time>
   <time name="total">   15.76   15.76</time>
   <energy>
    <i name="e_fr_energy">     -4.31049487 </i>
    <i name="e_wo_entrp">     -4.31049487 </i>
    <i name="e_0_energy">     -4.31049487 </i>
   </energy>
  </scstep>
  <scstep>
   <time name="diag">    1.10    1.10</time>
   <time name="diis">    4.40    4.40</time>
   <time name="orth">    0.04    0.05</time>
   <time name="total">   15.79   15.80</time>
   <energy>
    <i name="e_fr_energy">     -4.12381193 </i>
    <i name="e_wo_entrp">     -4.12381193 </i>
    <i name="e_0_energy">     -4.12381193 </i>
   </energy>
  </scstep>
  <scstep>
   <time name="diag">    1.10    1.10</time>
   <time name="diis">    3.75    3.75</time>
   <time name="orth">    0.05    0.05</time>
   <time name="total">   15.17   15.18</time>
   <energy>
    <i name="e_fr_energy">     -4.56901325 </i>
    <i name="e_wo_entrp">     -4.56901325 </i>
    <i name="e_0_energy">     -4.56901325 </i>
   </energy>
  </scstep>
  <scstep>
   <time name="diag">    1.10    1.10</time>
   <time name="diis">    4.16    4.16</time>
   <time name="orth">    0.05    0.05</time>
   <time name="total">   15.60   15.61</time>
   <energy>
    <i name="e_fr_energy">     -2.65024590 </i>
    <i name="e_wo_entrp">     -2.65024590 </i>
    <i name="e_0_energy">     -2.65024590 </i>
   </energy>
  </scstep>
  <scstep>
   <time name="diag">    1.10    1.10</time>
   <time name="diis">    4.35    4.35</time>
   <time name="orth">    0.05    0.05</time>
   <time name="total">   16.03   16.04</time>
   <energy>
    <i name="e_fr_energy">     -0.59731526 </i>
    <i name="e_wo_entrp">     -0.44564002 </i>
    <i name="e_0_energy">     -0.52147764 </i>
   </energy>
  </scstep>
  <scstep>
   <time name="diag">    1.10    1.10</time>
   <time name="diis">    4.17    4.18</time>
   <time name="orth">    0.05    0.05</time>
   <time name="total">   15.67   15.67</time>
   <energy>
    <i name="e_fr_energy">     -1.44572555 </i>
    <i name="e_wo_entrp">     -1.44572555 </i>
    <i name="e_0_energy">     -1.44572555 </i>
   </energy>
  </scstep>
  <scstep>
   <time name="diag">    1.10    1.10</time>
   <time name="diis">    3.74    3.75</time>
   <time name="orth">    0.05    0.05</time>
   <time name="total">   15.25   15.26</time>
   <energy>
    <i name="e_fr_energy">    -14.83423790 </i>
    <i name="e_wo_entrp">    -14.83423790 </i>
    <i name="e_0_energy">    -14.83423790 </i>
   </energy>
  </scstep>
  <scstep>
   <time name="diag">    1.10    1.10</time>
   <time name="diis">    4.34    4.33</time>
   <time name="orth">    0.05    0.05</time>
   <time name="total">   15.88   15.89</time>
   <energy>
    <i name="e_fr_energy">     -9.41444862 </i>
    <i name="e_wo_entrp">     -9.41444862 </i>
    <i name="e_0_energy">     -9.41444862 </i>
   </energy>
  </scstep>
  <scstep>
   <time name="diag">    1.10    1.10</time>
   <time name="diis">    3.72    3.72</time>
   <time name="orth">    0.05    0.05</time>
   <time name="total">   15.29   15.30</time>
   <energy>
    <i name="e_fr_energy">    -25.08470095 </i>
    <i name="e_wo_entrp">    -25.08470095 </i>
    <i name="e_0_energy">    -25.08470095 </i>
   </energy>
  </scstep>
  <scstep>
   <time name="diag">    1.10    1.10</time>
   <time name="diis">    3.72    3.72</time>
   <time name="orth">    0.05    0.05</time>
   <time name="total">   15.32   15.34</time>
   <energy>
    <i name="e_fr_energy">     -7.88109009 </i>
    <i name="e_wo_entrp">     -7.88109009 </i>
    <i name="e_0_energy">     -7.88109009 </i>
   </energy>
  </scstep>
  <scstep>
   <time name="diag">    1.10    1.10</time>
   <time name="diis">    3.76    3.76</time>
   <time name="orth">    0.05    0.05</time>
   <time name="total">   15.61   15.61</time>
   <energy>
    <i name="e_fr_energy">     -2.07770276 </i>
    <i name="e_wo_entrp">     -2.07770274 </i>
    <i name="e_0_energy">     -2.07770275 </i>
   </energy>
  </scstep>
  <scstep>
   <time name="diag">    1.10    1.10</time>
   <time name="diis">    3.74    3.74</time>
   <time name="orth">    0.05    0.05</time>
   <time name="total">   15.41   15.41</time>
   <energy>
    <i name="e_fr_energy">    -15.56834367 </i>
    <i name="e_wo_entrp">    -15.56834367 </i>
    <i name="e_0_energy">    -15.56834367 </i>
   </energy>
  </scstep>
  <scstep>
   <time name="diag">    1.10    1.10</time>
   <time name="diis">    4.20    4.20</time>
   <time name="orth">    0.04    0.05</time>
   <time name="total">   15.91   15.92</time>
   <energy>
    <i name="e_fr_energy">    -14.83506670 </i>
    <i name="e_wo_entrp">    -14.83506670 </i>
    <i name="e_0_energy">    -14.83506670 </i>
   </energy>
  </scstep>
  <scstep>
   <time name="diag">    1.10    1.10</time>
   <time name="diis">    3.74    3.74</time>
   <time name="orth">    0.05    0.05</time>
   <time name="total">   15.47   15.48</time>
   <energy>
    <i name="e_fr_energy">    -10.67196068 </i>
    <i name="e_wo_entrp">    -10.67196068 </i>
    <i name="e_0_energy">    -10.67196068 </i>
   </energy>
  </scstep>
  <scstep>
   <time name="diag">    1.10    1.10</time>
   <time name="diis">    4.16    4.16</time>
   <time name="orth">    0.05    0.05</time>
   <time name="total">   15.93   15.93</time>
   <energy>
    <i name="e_fr_energy">     -4.59370460 </i>
    <i name="e_wo_entrp">     -4.59370460 </i>
    <i name="e_0_energy">     -4.59370460 </i>
   </energy>
  </scstep>
  <scstep>
   <time name="diag">    1.10    1.10</time>
   <time name="diis">    4.33    4.33</time>
   <time name="orth">    0.05    0.05</time>
   <time name="total">   16.12   16.12</time>
   <energy>
    <i name="e_fr_energy">     -5.72784595 </i>
    <i name="e_wo_entrp">     -5.72784595 </i>
    <i name="e_0_energy">     -5.72784595 </i>
   </energy>
  </scstep>
  <scstep>
   <time name="diag">    1.10    1.10</time>
   <time name="diis">    4.34    4.34</time>
   <time name="orth">    0.05    0.05</time>
   <time name="total">   16.17   16.17</time>
   <energy>
    <i name="e_fr_energy">    -12.28434446 </i>
    <i name="e_wo_entrp">    -12.28434446 </i>
    <i name="e_0_energy">    -12.28434446 </i>
   </energy>
  </scstep>
  <scstep>
   <time name="diag">    1.10    1.10</time>
   <time name="diis">    4.22    4.23</time>
   <time name="orth">    0.05    0.05</time>
   <time name="total">   16.07   16.10</time>
   <energy>
    <i name="e_fr_energy">     -2.87978315 </i>
    <i name="e_wo_entrp">     -2.87978315 </i>
    <i name="e_0_energy">     -2.87978315 </i>
   </energy>
  </scstep>
  <scstep>
   <time name="diag">    1.10    1.10</time>
   <time name="diis">    4.38    4.39</time>
   <time name="orth">    0.05    0.05</time>
   <time name="total">   16.45   16.51</time>
   <energy>
    <i name="e_fr_energy">     -0.96595953 </i>
    <i name="e_wo_entrp">     -0.94140776 </i>
    <i name="e_0_energy">     -0.95368365 </i>
   </energy>
  </scstep>
  <scstep>
   <time name="diag">    1.10    1.10</time>
   <time name="diis">    4.64    4.65</time>
   <time name="orth">    0.05    0.05</time>
   <time name="total">   16.56   16.59</time>
   <energy>
    <i name="e_fr_energy">    -11.42378829 </i>
    <i name="e_wo_entrp">    -11.42378829 </i>
    <i name="e_0_energy">    -11.42378829 </i>
   </energy>
  </scstep>
  <scstep>
   <time name="diag">    1.10    1.10</time>
   <time name="diis">    4.06    4.06</time>
   <time name="orth">    0.05    0.05</time>
   <time name="total">   16.03   16.06</time>
   <energy>
    <i name="e_fr_energy">     -5.60243570 </i>
    <i name="e_wo_entrp">     -5.60243570 </i>
    <i name="e_0_energy">     -5.60243570 </i>
   </energy>
  </scstep>
  <scstep>
   <time name="diag">    1.10    1.10</time>
   <time name="diis">    4.33    4.34</time>
   <time name="orth">    0.05    0.05</time>
   <time name="total">   16.52   16.57</time>
   <energy>
    <i name="e_fr_energy">     -0.80042789 </i>
    <i name="e_wo_entrp">     -0.73467544 </i>
    <i name="e_0_energy">     -0.76755167 </i>
   </energy>
  </scstep>
  <scstep>
   <time name="diag">    1.10    1.10</time>
   <time name="diis">    4.65    4.65</time>
   <time name="orth">    0.05    0.05</time>
   <time name="total">   16.71   16.71</time>
   <energy>
    <i name="e_fr_energy">     -8.91215722 </i>
    <i name="e_wo_entrp">     -8.91215722 </i>
    <i name="e_0_energy">     -8.91215722 </i>
   </energy>
  </scstep>
  <scstep>
   <time name="diag">    1.10    1.10</time>
   <time name="diis">    4.27    4.29</time>
   <time name="orth">    0.05    0.05</time>
   <time name="total">   16.36   16.39</time>
   <energy>
    <i name="e_fr_energy">     -4.08612168 </i>
    <i name="e_wo_entrp">     -4.08612168 </i>
    <i name="e_0_energy">     -4.08612168 </i>
   </energy>
  </scstep>
  <scstep>
   <time name="diag">    1.10    1.10</time>
   <time name="diis">    4.36    4.36</time>
   <time name="orth">    0.05    0.05</time>
   <time name="total">   16.49   16.51</time>
   <energy>
    <i name="e_fr_energy">     -2.35187008 </i>
    <i name="e_wo_entrp">     -2.35187008 </i>
    <i name="e_0_energy">     -2.35187008 </i>
   </energy>
  </scstep>
  <scstep>
   <time name="diag">    1.10    1.10</time>
   <time name="diis">    4.32    4.32</time>
   <time name="orth">    0.05    0.05</time>
   <time name="total">   16.72   16.73</time>
   <energy>
    <i name="e_fr_energy">     -0.82096539 </i>
    <i name="e_wo_entrp">     -0.76189229 </i>
    <i name="e_0_energy">     -0.79142884 </i>
   </energy>
  </scstep>
  <scstep>
   <time name="diag">    1.10    1.10</time>
   <time name="diis">    4.66    4.66</time>
   <time name="orth">    0.05    0.05</time>
   <time name="total">   16.89   16.91</time>
   <energy>
    <i name="e_fr_energy">     -8.65817990 </i>
    <i name="e_wo_entrp">     -8.65817990 </i>
    <i name="e_0_energy">     -8.65817990 </i>
   </energy>
  </scstep>
  <scstep>
   <time name="diag">    1.10    1.10</time>
   <time name="diis">    4.35    4.35</time>
   <time name="orth">    0.05    0.05</time>
   <time name="total">   16.54   16.57</time>
   <energy>
    <i name="e_fr_energy">     -2.71061075 </i>
    <i name="e_wo_entrp">     -2.71061075 </i>
    <i name="e_0_energy">     -2.71061075 </i>
   </energy>
  </scstep>
  <scstep>
   <time name="diag">    1.10    1.10</time>
   <time name="diis">    4.35    4.35</time>
   <time name="orth">    0.04    0.05</time>
   <time name="total">   16.66   16.68</time>
   <energy>
    <i name="e_fr_energy">     -2.17551320 </i>
    <i name="e_wo_entrp">     -2.17551320 </i>
    <i name="e_0_energy">     -2.17551320 </i>
   </energy>
  </scstep>
  <scstep>
   <time name="diag">    1.10    1.10</time>
   <time name="diis">    3.92    3.94</time>
   <time name="orth">    0.05    0.05</time>
   <time name="total">   16.05   16.08</time>
   <energy>
    <i name="e_fr_energy">    -11.99575568 </i>
    <i name="e_wo_entrp">    -11.99575568 </i>
    <i name="e_0_energy">    -11.99575568 </i>
   </energy>
  </scstep>
  <scstep>
   <time name="diag">    1.10    1.10</time>
   <time name="diis">    3.99    3.99</time>
   <time name="orth">    0.05    0.05</time>
   <time name="total">   16.18   16.19</time>
   <energy>
    <i name="e_fr_energy">     -9.00375046 </i>
    <i name="e_wo_entrp">     -9.00375046 </i>
    <i name="e_0_energy">     -9.00375046 </i>
   </energy>
  </scstep>
  <scstep>
   <time name="diag">    1.10    1.10</time>
   <time name="diis">    3.94    3.94</time>
   <time name="orth">    0.05    0.05</time>
   <time name="total">   16.18   16.18</time>
   <energy>
    <i name="e_fr_energy">     -3.44132597 </i>
    <i name="e_wo_entrp">     -3.44132597 </i>
    <i name="e_0_energy">     -3.44132597 </i>
   </energy>
  </scstep>
  <scstep>
   <time name="diag">    1.10    1.10</time>
   <time name="diis">    4.37    4.39</time>
   <time name="orth">    0.05    0.05</time>
   <time name="total">   16.76   16.80</time>
   <energy>
    <i name="e_fr_energy">     -0.75343056 </i>
    <i name="e_wo_entrp">     -0.75148638 </i>
    <i name="e_0_energy">     -0.75245847 </i>
   </energy>
  </scstep>
  <scstep>
   <time name="diag">    1.10    1.10</time>
   <time name="diis">    4.65    4.65</time>
   <time name="orth">    0.05    0.05</time>
   <time name="total">   16.74   16.75</time>
   <energy>
    <i name="e_fr_energy">     -5.03144291 </i>
    <i name="e_wo_entrp">     -5.03144291 </i>
    <i name="e_0_energy">     -5.03144291 </i>
   </energy>
  </scstep>
  <scstep>
   <time name="diag">    1.10    1.10</time>
   <time name="diis">    3.70    3.71</time>
   <time name="orth">    0.04    0.05</time>
   <time name="total">   15.84   15.86</time>
   <energy>
    <i name="e_fr_energy">    -12.62555389 </i>
    <i name="e_wo_entrp">    -12.62555389 </i>
    <i name="e_0_energy">    -12.62555389 </i>
   </energy>
  </scstep>
  <scstep>
   <time name="diag">    1.10    1.10</time>
   <time name="diis">    3.74    3.74</time>
   <time name="orth">    0.04    0.05</time>
   <time name="total">   16.12   16.14</time>
   <energy>
    <i name="e_fr_energy">     -2.12872093 </i>
    <i name="e_wo_entrp">     -2.12872093 </i>
    <i name="e_0_energy">     -2.12872093 </i>
   </energy>
  </scstep>
  <scstep>
   <time name="diag">    1.10    1.10</time>
   <time name="diis">    3.77    3.77</time>
   <time name="orth">    0.05    0.05</time>
   <time name="total">   15.99   16.00</time>
   <energy>
    <i name="e_fr_energy">     -8.18816952 </i>
    <i name="e_wo_entrp">     -8.18816952 </i>
    <i name="e_0_energy">     -8.18816952 </i>
   </energy>
  </scstep>
  <scstep>
   <time name="diag">    1.09    1.10</time>
   <time name="diis">    4.38    4.38</time>
   <time name="orth">    0.05    0.05</time>
   <time name="total">   16.57   16.59</time>
   <energy>
    <i name="e_fr_energy">     -3.32737456 </i>
    <i name="e_wo_entrp">     -3.32737456 </i>
    <i name="e_0_energy">     -3.32737456 </i>
   </energy>
  </scstep>
  <scstep>
   <time name="diag">    1.10    1.10</time>
   <time name="diis">    4.37    4.37</time>
   <time name="orth">    0.05    0.05</time>
   <time name="total">   16.48   16.50</time>
   <energy>
    <i name="e_fr_energy">     -4.14626336 </i>
    <i name="e_wo_entrp">     -4.14626336 </i>
    <i name="e_0_energy">     -4.14626336 </i>
   </energy>
  </scstep>
  <scstep>
   <time name="diag">    1.10    1.10</time>
   <time name="diis">    4.34    4.34</time>
   <time name="orth">    0.04    0.05</time>
   <time name="total">   16.50   16.51</time>
   <energy>
    <i name="e_fr_energy">     -3.38869213 </i>
    <i name="e_wo_entrp">     -3.38869213 </i>
    <i name="e_0_energy">     -3.38869213 </i>
   </energy>
  </scstep>
  <scstep>
   <time name="diag">    1.10    1.10</time>
   <time name="diis">    4.35    4.35</time>
   <time name="orth">    0.05    0.05</time>
   <time name="total">   16.49   16.53</time>
   <energy>
    <i name="e_fr_energy">     -2.64053270 </i>
    <i name="e_wo_entrp">     -2.64053270 </i>
    <i name="e_0_energy">     -2.64053270 </i>
   </energy>
  </scstep>
  <scstep>
   <time name="diag">    1.10    1.10</time>
   <time name="diis">    4.33    4.33</time>
   <time name="orth">    0.05    0.05</time>
   <time name="total">   16.56   16.57</time>
   <energy>
    <i name="e_fr_energy">     -1.90660415 </i>
    <i name="e_wo_entrp">     -1.90660415 </i>
    <i name="e_0_energy">     -1.90660415 </i>
   </energy>
  </scstep>
  <scstep>
   <time name="diag">    1.10    1.10</time>
   <time name="diis">    4.02    4.02</time>
   <time name="orth">    0.05    0.05</time>
   <time name="total">   16.42   16.43</time>
   <energy>
    <i name="e_fr_energy">     -1.05788102 </i>
    <i name="e_wo_entrp">     -1.05788090 </i>
    <i name="e_0_energy">     -1.05788096 </i>
   </energy>
  </scstep>
  <scstep>
   <time name="diag">    1.10    1.10</time>
   <time name="diis">    4.34    4.35</time>
   <time name="orth">    0.04    0.05</time>
   <time name="total">   16.43   16.46</time>
   <energy>
    <i name="e_fr_energy">     -1.76984478 </i>
    <i name="e_wo_entrp">     -1.76984478 </i>
    <i name="e_0_energy">     -1.76984478 </i>
   </energy>
  </scstep>
  <scstep>
   <time name="diag">    1.10    1.10</time>
   <time name="diis">    4.34    4.34</time>
   <time name="orth">    0.04    0.05</time>
   <time name="total">   16.69   16.70</time>
   <energy>
    <i name="e_fr_energy">     -0.80382674 </i>
    <i name="e_wo_entrp">     -0.80320111 </i>
    <i name="e_0_energy">     -0.80351392 </i>
   </energy>
  </scstep>
  <scstep>
   <time name="diag">    1.10    1.10</time>
   <time name="diis">    4.34    4.36</time>
   <time name="orth">    0.05    0.05</time>
   <time name="total">   16.53   16.55</time>
   <energy>
    <i name="e_fr_energy">     -3.51014098 </i>
    <i name="e_wo_entrp">     -3.51014098 </i>
    <i name="e_0_energy">     -3.51014098 </i>
   </energy>
  </scstep>
  <scstep>
   <time name="diag">    1.10    1.10</time>
   <time name="diis">    3.73    3.73</time>
   <time name="orth">    0.04    0.05</time>
   <time name="total">   15.93   15.96</time>
   <energy>
    <i name="e_fr_energy">     -9.92568970 </i>
    <i name="e_wo_entrp">     -9.92568970 </i>
    <i name="e_0_energy">     -9.92568970 </i>
   </energy>
  </scstep>
  <scstep>
   <time name="diag">    1.10    1.10</time>
   <time name="diis">    3.79    3.79</time>
   <time name="orth">    0.04    0.05</time>
   <time name="total">   16.00   16.01</time>
   <energy>
    <i name="e_fr_energy">     -7.55279191 </i>
    <i name="e_wo_entrp">     -7.55279191 </i>
    <i name="e_0_energy">     -7.55279191 </i>
   </energy>
  </scstep>
  <scstep>
   <time name="diag">    1.10    1.10</time>
   <time name="diis">    4.35    4.35</time>
   <time name="orth">    0.05    0.05</time>
   <time name="total">   16.45   16.47</time>
   <energy>
    <i name="e_fr_energy">     -5.25238542 </i>
    <i name="e_wo_entrp">     -5.25238542 </i>
    <i name="e_0_energy">     -5.25238542 </i>
   </energy>
  </scstep>
  <scstep>
   <time name="diag">    1.10    1.10</time>
   <time name="diis">    4.34    4.34</time>
   <time name="orth">    0.05    0.05</time>
   <time name="total">   16.47   16.48</time>
   <energy>
    <i name="e_fr_energy">     -3.61906507 </i>
    <i name="e_wo_entrp">     -3.61906507 </i>
    <i name="e_0_energy">     -3.61906507 </i>
   </energy>
  </scstep>
  <scstep>
   <time name="diag">    1.10    1.10</time>
   <time name="diis">    4.37    4.37</time>
   <time name="orth">    0.05    0.05</time>
   <time name="total">   16.53   16.55</time>
   <energy>
    <i name="e_fr_energy">     -3.28426309 </i>
    <i name="e_wo_entrp">     -3.28426309 </i>
    <i name="e_0_energy">     -3.28426309 </i>
   </energy>
  </scstep>
  <scstep>
   <time name="diag">    1.10    1.10</time>
   <time name="diis">    4.38    4.38</time>
   <time name="orth">    0.05    0.06</time>
   <time name="total">   16.59   16.62</time>
   <energy>
    <i name="e_fr_energy">     -2.99582388 </i>
    <i name="e_wo_entrp">     -2.99582388 </i>
    <i name="e_0_energy">     -2.99582388 </i>
   </energy>
  </scstep>
  <scstep>
   <time name="diag">    1.10    1.10</time>
   <time name="diis">    4.35    4.35</time>
   <time name="orth">    0.05    0.05</time>
   <time name="total">   16.54   16.55</time>
   <energy>
    <i name="e_fr_energy">     -2.46993013 </i>
    <i name="e_wo_entrp">     -2.46993013 </i>
    <i name="e_0_energy">     -2.46993013 </i>
   </energy>
  </scstep>
  <scstep>
   <time name="diag">    1.10    1.10</time>
   <time name="diis">    4.33    4.33</time>
   <time name="orth">    0.05    0.05</time>
   <time name="total">   16.65   16.67</time>
   <energy>
    <i name="e_fr_energy">     -0.86810385 </i>
    <i name="e_wo_entrp">     -0.86800418 </i>
    <i name="e_0_energy">     -0.86805402 </i>
   </energy>
  </scstep>
  <scstep>
   <time name="diag">    1.08    1.10</time>
   <time name="diis">    4.35    4.35</time>
   <time name="orth">    0.05    0.05</time>
   <time name="total">   16.71   16.73</time>
   <energy>
    <i name="e_fr_energy">     -0.81306892 </i>
    <i name="e_wo_entrp">     -0.81257998 </i>
    <i name="e_0_energy">     -0.81282445 </i>
   </energy>
  </scstep>
  <scstep>
   <time name="diag">    1.10    1.10</time>
   <time name="diis">    4.40    4.40</time>
   <time name="orth">    0.04    0.05</time>
   <time name="total">   16.82   16.82</time>
   <energy>
    <i name="e_fr_energy">     -0.69549901 </i>
    <i name="e_wo_entrp">     -0.68793950 </i>
    <i name="e_0_energy">     -0.69171925 </i>
   </energy>
  </scstep>
  <scstep>
   <time name="diag">    1.10    1.10</time>
   <time name="diis">    4.61    4.63</time>
   <time name="orth">    0.05    0.05</time>
   <time name="total">   16.86   16.88</time>
   <energy>
    <i name="e_fr_energy">     -7.61677998 </i>
    <i name="e_wo_entrp">     -7.61677998 </i>
    <i name="e_0_energy">     -7.61677998 </i>
   </energy>
  </scstep>
  <scstep>
   <time name="diag">    1.10    1.10</time>
   <time name="diis">    4.32    4.33</time>
   <time name="orth">    0.05    0.05</time>
   <time name="total">   16.52   16.54</time>
   <energy>
    <i name="e_fr_energy">    -19.94177927 </i>
    <i name="e_wo_entrp">    -19.94177927 </i>
    <i name="e_0_energy">    -19.94177927 </i>
   </energy>
  </scstep>
  <scstep>
   <time name="diag">    1.10    1.10</time>
   <time name="diis">    3.72    3.72</time>
   <time name="orth">    0.05    0.05</time>
   <time name="total">   15.85   15.86</time>
   <energy>
    <i name="e_fr_energy">    -23.12180742 </i>
    <i name="e_wo_entrp">    -23.12180742 </i>
    <i name="e_0_energy">    -23.12180742 </i>
   </energy>
  </scstep>
  <scstep>
   <time name="diag">    1.10    1.10</time>
   <time name="diis">    3.79    3.79</time>
   <time name="orth">    0.05    0.05</time>
   <time name="total">   15.95   15.97</time>
   <energy>
    <i name="e_fr_energy">    -10.01484686 </i>
    <i name="e_wo_entrp">    -10.01484686 </i>
    <i name="e_0_energy">    -10.01484686 </i>
   </energy>
  </scstep>
  <scstep>
   <time name="diag">    1.10    1.10</time>
   <time name="diis">    4.39    4.39</time>
   <time name="orth">    0.05    0.05</time>
   <time name="total">   16.58   16.59</time>
   <energy>
    <i name="e_fr_energy">     -5.23362674 </i>
    <i name="e_wo_entrp">     -5.23362674 </i>
    <i name="e_0_energy">     -5.23362674 </i>
   </energy>
  </scstep>
  <scstep>
   <time name="diag">    1.10    1.10</time>
   <time name="diis">    3.73    3.73</time>
   <time name="orth">    0.04    0.05</time>
   <time name="total">   15.97   15.98</time>
   <energy>
    <i name="e_fr_energy">    -31.74241066 </i>
    <i name="e_wo_entrp">    -31.74241066 </i>
    <i name="e_0_energy">    -31.74241066 </i>
   </energy>
  </scstep>
  <scstep>
   <time name="diag">    1.10    1.10</time>
   <time name="diis">    4.38    4.40</time>
   <time name="orth">    0.05    0.05</time>
   <time name="total">   16.57   16.60</time>
   <energy>
    <i name="e_fr_energy">    -34.25729695 </i>
    <i name="e_wo_entrp">    -34.25729695 </i>
    <i name="e_0_energy">    -34.25729695 </i>
   </energy>
  </scstep>
  <scstep>
   <time name="diag">    1.10    1.10</time>
   <time name="diis">    4.16    4.15</time>
   <time name="orth">    0.04    0.05</time>
   <time name="total">   16.27   16.28</time>
   <energy>
    <i name="e_fr_energy">    -24.44627702 </i>
    <i name="e_wo_entrp">    -24.44627702 </i>
    <i name="e_0_energy">    -24.44627702 </i>
   </energy>
  </scstep>
  <scstep>
   <time name="diag">    1.10    1.10</time>
   <time name="diis">    3.99    3.99</time>
   <time name="orth">    0.05    0.05</time>
   <time name="total">   16.13   16.16</time>
   <energy>
    <i name="e_fr_energy">    -24.57851589 </i>
    <i name="e_wo_entrp">    -24.57851589 </i>
    <i name="e_0_energy">    -24.57851589 </i>
   </energy>
  </scstep>
  <scstep>
   <time name="diag">    1.10    1.10</time>
   <time name="diis">    3.73    3.73</time>
   <time name="orth">    0.04    0.05</time>
   <time name="total">   15.91   15.93</time>
   <energy>
    <i name="e_fr_energy">    -30.64917531 </i>
    <i name="e_wo_entrp">    -30.64917531 </i>
    <i name="e_0_energy">    -30.64917531 </i>
   </energy>
  </scstep>
  <scstep>
   <time name="diag">    1.10    1.10</time>
   <time name="diis">    3.98    3.98</time>
   <time name="orth">    0.05    0.05</time>
   <time name="total">   16.24   16.24</time>
   <energy>
    <i name="e_fr_energy">    -16.36927942 </i>
    <i name="e_wo_entrp">    -16.36927942 </i>
    <i name="e_0_energy">    -16.36927942 </i>
   </energy>
  </scstep>
  <scstep>
   <time name="diag">    1.10    1.10</time>
   <time name="diis">    4.24    4.26</time>
   <time name="orth">    0.05    0.05</time>
   <time name="total">   16.44   16.46</time>
   <energy>
    <i name="e_fr_energy">    -12.07722684 </i>
    <i name="e_wo_entrp">    -12.07722684 </i>
    <i name="e_0_energy">    -12.07722684 </i>
   </energy>
  </scstep>
  <scstep>
   <time name="diag">    1.10    1.10</time>
   <time name="diis">    4.35    4.35</time>
   <time name="orth">    0.05    0.05</time>
   <time name="total">   16.45   16.47</time>
   <energy>
    <i name="e_fr_energy">     -8.80334860 </i>
    <i name="e_wo_entrp">     -8.80334860 </i>
    <i name="e_0_energy">     -8.80334860 </i>
   </energy>
  </scstep>
  <scstep>
   <time name="diag">    1.10    1.10</time>
   <time name="diis">    4.34    4.34</time>
   <time name="orth">    0.05    0.05</time>
   <time name="total">   16.50   16.51</time>
   <energy>
    <i name="e_fr_energy">     -6.78763668 </i>
    <i name="e_wo_entrp">     -6.78763668 </i>
    <i name="e_0_energy">     -6.78763668 </i>
   </energy>
  </scstep>
  <scstep>
   <time name="diag">    1.10    1.10</time>
   <time name="diis">    4.36    4.36</time>
   <time name="orth">    0.05    0.05</time>
   <time name="total">   16.55   16.58</time>
   <energy>
    <i name="e_fr_energy">     -3.64158462 </i>
    <i name="e_wo_entrp">     -3.64158462 </i>
    <i name="e_0_energy">     -3.64158462 </i>
   </energy>
  </scstep>
  <scstep>
   <time name="diag">    1.10    1.10</time>
   <time name="diis">    4.34    4.34</time>
   <time name="orth">    0.05    0.05</time>
   <time name="total">   16.57   16.59</time>
   <energy>
    <i name="e_fr_energy">     -5.03580340 </i>
    <i name="e_wo_entrp">     -5.03580340 </i>
    <i name="e_0_energy">     -5.03580340 </i>
   </energy>
  </scstep>
  <scstep>
   <time name="diag">    1.10    1.10</time>
   <time name="diis">    3.73    3.73</time>
   <time name="orth">    0.05    0.05</time>
   <time name="total">   15.93   15.94</time>
   <energy>
    <i name="e_fr_energy">     -9.13129440 </i>
    <i name="e_wo_entrp">     -9.13129440 </i>
    <i name="e_0_energy">     -9.13129440 </i>
   </energy>
  </scstep>
  <scstep>
   <time name="diag">    1.10    1.10</time>
   <time name="diis">    3.78    3.79</time>
   <time name="orth">    0.04    0.05</time>
   <time name="total">   15.89   15.93</time>
   <energy>
    <i name="e_fr_energy">     -4.53152447 </i>
    <i name="e_wo_entrp">     -4.53152447 </i>
    <i name="e_0_energy">     -4.53152447 </i>
   </energy>
  </scstep>
  <scstep>
   <time name="diag">    1.10    1.10</time>
   <time name="diis">    3.72    3.72</time>
   <time name="orth">    0.05    0.05</time>
   <time name="total">   15.88   15.89</time>
   <energy>
    <i name="e_fr_energy">     -3.95120646 </i>
    <i name="e_wo_entrp">     -3.95120646 </i>
    <i name="e_0_energy">     -3.95120646 </i>
   </energy>
  </scstep>
  <scstep>
   <time name="diag">    1.10    1.10</time>
   <time name="diis">    4.40    4.40</time>
   <time name="orth">    0.05    0.05</time>
   <time name="total">   16.60   16.62</time>
   <energy>
    <i name="e_fr_energy">     -6.62630004 </i>
    <i name="e_wo_entrp">     -6.62630004 </i>
    <i name="e_0_energy">     -6.62630004 </i>
   </energy>
  </scstep>
  <scstep>
   <time name="diag">    1.09    1.10</time>
   <time name="diis">    4.36    4.36</time>
   <time name="orth">    0.04    0.05</time>
   <time name="total">   16.59   16.61</time>
   <energy>
    <i name="e_fr_energy">     -3.54022268 </i>
    <i name="e_wo_entrp">     -3.54022268 </i>
    <i name="e_0_energy">     -3.54022268 </i>
   </energy>
  </scstep>
  <scstep>
   <time name="diag">    1.10    1.10</time>
   <time name="diis">    3.73    3.73</time>
   <time name="orth">    0.04    0.05</time>
   <time name="total">   13.73   13.74</time>
   <energy>
    <i name="alphaZ">      0.00563328 </i>
    <i name="ewald">    -10.68537377 </i>
    <i name="hartreedc">   -486.46049209 </i>
    <i name="XCdc">     29.36629515 </i>
    <i name="pawpsdc">    467.82641214 </i>
    <i name="pawaedc">   -461.62660985 </i>
    <i name="eentropy">     -0.00000000 </i>
    <i name="bandstr">   -125.32175956 </i>
    <i name="atom">    579.50312721 </i>
    <i name="e_fr_energy">     -7.39276750 </i>
    <i name="e_wo_entrp">     -7.39276750 </i>
    <i name="e_0_energy">     -7.39276750 </i>
   </energy>
  </scstep>
  <structure>
   <crystal>
    <varray name="basis" >
     <v>      30.00000000       0.00000000       0.00000000 </v>
     <v>       0.00000000      30.00000000       0.00000000 </v>
     <v>       0.00000000       0.00000000      30.00000000 </v>
    </varray>
    <i name="volume">  27000.00000000 </i>
    <varray name="rec_basis" >
     <v>       0.03333333       0.00000000       0.00000000 </v>
     <v>       0.00000000       0.03333333       0.00000000 </v>
     <v>       0.00000000       0.00000000       0.03333333 </v>
    </varray>
   </crystal>
   <varray name="positions" >
    <v>       0.47980337       0.47486042       0.60390684 </v>
    <v>       0.60883563       0.61941158       0.53965116 </v>
   </varray>
  </structure>
  <varray name="forces" >
   <v>       0.01299298       0.01522603      -0.00633410 </v>
   <v>      -0.01299298      -0.01522603       0.00633410 </v>
  </varray>
  <varray name="stress" >
   <v>       2.46434736      -0.22728087       0.10119377 </v>
   <v>      -0.22728086       2.40752983       0.11332331 </v>
   <v>       0.10119377       0.11332331       2.63334154 </v>
  </varray>
  <energy>
   <i name="e_fr_energy">     -7.39310710 </i>
   <i name="e_wo_entrp">     -7.39310710 </i>
   <i name="e_0_energy">     -0.00000000 </i>
  </energy>
  <time name="totalsc"> 1889.75 3337.32</time>
 </calculation>
 <calculation>
  <scstep>
   <time name="dav">    6.24    6.26</time>
   <time name="total">   16.26   16.28</time>
   <energy>
    <i name="alphaZ">      0.00563328 </i>
    <i name="ewald">    -10.66733701 </i>
    <i name="hartreedc">   -491.41408391 </i>
    <i name="XCdc">     29.24275261 </i>
    <i name="pawpsdc">    460.32155711 </i>
    <i name="pawaedc">   -454.12264469 </i>
    <i name="eentropy">     -0.00000000 </i>
    <i name="bandstr">   -118.10030869 </i>
    <i name="atom">    579.50312721 </i>
    <i name="e_fr_energy">     -5.23130409 </i>
    <i name="e_wo_entrp">     -5.23130409 </i>
    <i name="e_0_energy">     -5.23130409 </i>
   </energy>
  </scstep>
  <scstep>
   <time name="diag">    1.10    1.10</time>
   <time name="diis">    3.77    3.78</time>
   <time name="orth">    0.05    0.05</time>
   <time name="total">   14.90   14.91</time>
   <energy>
    <i name="e_fr_energy">    -72.31978567 </i>
    <i name="e_wo_entrp">    -72.31978567 </i>
    <i name="e_0_energy">    -72.31978567 </i>
   </energy>
  </scstep>
  <scstep>
   <time name="diag">    1.10    1.10</time>
   <time name="diis">    3.78    3.78</time>
   <time name="orth">    0.05    0.05</time>
   <time name="total">   14.82   14.85</time>
   <energy>
    <i name="e_fr_energy">    -35.00276817 </i>
    <i name="e_wo_entrp">    -35.00276817 </i>
    <i name="e_0_energy">    -35.00276817 </i>
   </energy>
  </scstep>
  <scstep>
   <time name="diag">    1.08    1.10</time>
   <time name="diis">    3.73    3.73</time>
   <time name="orth">    0.05    0.05</time>
   <time name="total">   14.79   14.82</time>
   <energy>
    <i name="e_fr_energy">    -11.49904246 </i>
    <i name="e_wo_entrp">    -11.49904246 </i>
    <i name="e_0_energy">    -11.49904246 </i>
   </energy>
  </scstep>
  <scstep>
   <time name="diag">    1.10    1.10</time>
   <time name="diis">    4.34    4.35</time>
   <time name="orth">    0.05    0.05</time>
   <time name="total">   15.43   15.44</time>
   <energy>
    <i name="e_fr_energy">     -6.29870928 </i>
    <i name="e_wo_entrp">     -6.29870928 </i>
    <i name="e_0_energy">     -6.29870928 </i>
   </energy>
  </scstep>
  <scstep>
   <time name="diag">    1.10    1.10</time>
   <time name="diis">    4.37    4.39</time>
   <time name="orth">    0.05    0.05</time>
   <time name="total">   15.46   15.49</time>
   <energy>
    <i name="e_fr_energy">     -4.53063169 </i>
    <i name="e_wo_entrp">     -4.53063169 </i>
    <i name="e_0_energy">     -4.53063169 </i>
   </energy>
  </scstep>
  <scstep>
   <time name="diag">    1.10    1.10</time>
   <time name="diis">    4.33    4.33</time>
   <time name="orth">    0.04    0.05</time>
   <time name="total">   15.65   15.68</time>
   <energy>
    <i name="e_fr_energy">     -0.52370766 </i>
    <i name="e_wo_entrp">     -0.35729914 </i>
    <i name="e_0_energy">     -0.44050340 </i>
   </energy>
  </scstep>
  <scstep>
   <time name="diag">    1.10    1.10</time>
   <time name="diis">    4.68    4.68</time>
   <time name="orth">    0.05    0.05</time>
   <time name="total">   16.02   16.03</time>
   <energy>
    <i name="e_fr_energy">     -1.00758391 </i>
    <i name="e_wo_entrp">     -0.98757930 </i>
    <i name="e_0_energy">     -0.99758160 </i>
   </energy>
  </scstep>
  <scstep>
   <time name="diag">    1.10    1.10</time>
   <time name="diis">    4.31    4.33</time>
   <time name="orth">    0.05    0.05</time>
   <time name="total">   15.66   15.69</time>
   <energy>
    <i name="e_fr_energy">     -0.74664192 </i>
    <i name="e_wo_entrp">     -0.74535473 </i>
    <i name="e_0_energy">     -0.74599832 </i>
   </energy>
  </scstep>
  <scstep>
   <time name="diag">    1.10    1.10</time>
   <time name="diis">    3.78    3.78</time>
   <time name="orth">    0.05    0.05</time>
   <time name="total">   15.15   15.16</time>
   <energy>
    <i name="e_fr_energy">     -0.64631805 </i>
    <i name="e_wo_entrp">     -0.50834376 </i>
    <i name="e_0_energy">     -0.57733090 </i>
   </energy>
  </scstep>
  <scstep>
   <time name="diag">    1.10    1.10</time>
   <time name="diis">    3.75    3.75</time>
   <time name="orth">    0.05    0.05</time>
   <time name="total">   15.14   15.15</time>
   <energy>
    <i name="e_fr_energy">     -1.22856281 </i>
    <i name="e_wo_entrp">     -1.22856281 </i>
    <i name="e_0_energy">     -1.22856281 </i>
   </energy>
  </scstep>
  <scstep>
   <time name="diag">    1.10    1.10</time>
   <time name="diis">    3.75    3.77</time>
   <time name="orth">    0.05    0.05</time>
   <time name="total">   15.15   15.18</time>
   <energy>
    <i name="e_fr_energy">     -1.06695472 </i>
    <i name="e_wo_entrp">     -1.06695449 </i>
    <i name="e_0_energy">     -1.06695461 </i>
   </energy>
  </scstep>
  <scstep>
   <time name="diag">    1.10    1.10</time>
   <time name="diis">    3.72    3.72</time>
   <time name="orth">    0.05    0.05</time>
   <time name="total">   15.13   15.16</time>
   <energy>
    <i name="e_fr_energy">     -0.54945076 </i>
    <i name="e_wo_entrp">     -0.45966183 </i>
    <i name="e_0_energy">     -0.50455630 </i>
   </energy>
  </scstep>
  <scstep>
   <time name="diag">    1.10    1.10</time>
   <time name="diis">    4.21    4.21</time>
   <time name="orth">    0.04    0.05</time>
   <time name="total">   15.66   15.67</time>
   <energy>
    <i name="e_fr_energy">     -0.55965598 </i>
    <i name="e_wo_entrp">     -0.47202429 </i>
    <i name="e_0_energy">     -0.51584014 </i>
   </energy>
  </scstep>
  <scstep>
   <time name="diag">    1.10    1.10</time>
   <time name="diis">    4.36    4.38</time>
   <time name="orth">    0.05    0.05</time>
   <time name="total">   15.82   15.85</time>
   <energy>
    <i name="e_fr_energy">     -0.56046235 </i>
    <i name="e_wo_entrp">     -0.47260263 </i>
    <i name="e_0_energy">     -0.51653249 </i>
   </energy>
  </scstep>
  <scstep>
   <time name="diag">    1.10    1.10</time>
   <time name="diis">    4.03    4.03</time>
   <time name="orth">    0.05    0.05</time>
   <time name="total">   15.51   15.52</time>
   <energy>
    <i name="e_fr_energy">     -0.54554589 </i>
    <i name="e_wo_entrp">     -0.43796702 </i>
    <i name="e_0_energy">     -0.49175646 </i>
   </energy>
  </scstep>
  <scstep>
   <time name="diag">    1.10    1.10</time>
   <time name="diis">    4.43    4.43</time>
   <time name="orth">    0.05    0.05</time>
   <time name="total">   15.93   15.94</time>
   <energy>
    <i name="e_fr_energy">     -0.55401879 </i>
    <i name="e_wo_entrp">     -0.45459420 </i>
    <i name="e_0_energy">     -0.50430650 </i>
   </energy>
  </scstep>
  <scstep>
   <time name="diag">    1.10    1.10</time>
   <time name="diis">    4.35    4.35</time>
   <time name="orth">    0.05    0.05</time>
   <time name="total">   15.85   15.87</time>
   <energy>
    <i name="e_fr_energy">     -0.56828835 </i>
    <i name="e_wo_entrp">     -0.49739901 </i>
    <i name="e_0_energy">     -0.53284368 </i>
   </energy>
  </scstep>
  <scstep>
   <time name="diag">    1.10    1.10</time>
   <time name="diis">    3.78    3.78</time>
   <time name="orth">    0.05    0.05</time>
   <time name="total">   15.29   15.31</time>
   <energy>
    <i name="e_fr_energy">     -0.54368290 </i>
    <i name="e_wo_entrp">     -0.43544411 </i>
    <i name="e_0_energy">     -0.48956350 </i>
   </energy>
  </scstep>
  <scstep>
   <time name="diag">    1.10    1.10</time>
   <time name="diis">    3.77    3.77</time>
   <time name="orth">    0.05    0.05</time>
   <time name="total">   15.31   15.32</time>
   <energy>
    <i name="e_fr_energy">     -0.54349436 </i>
    <i name="e_wo_entrp">     -0.43851625 </i>
    <i name="e_0_energy">     -0.49100530 </i>
   </energy>
  </scstep>
  <scstep>
   <time name="diag">    1.10    1.10</time>
   <time name="diis">    4.26    4.26</time>
   <time name="orth">    0.05    0.05</time>
   <time name="total">   15.81   15.85</time>
   <energy>
    <i name="e_fr_energy">     -0.53772465 </i>
    <i name="e_wo_entrp">     -0.37990132 </i>
    <i name="e_0_energy">     -0.45881298 </i>
   </energy>
  </scstep>
  <scstep>
   <time name="diag">    1.10    1.10</time>
   <time name="diis">    3.79    3.79</time>
   <time name="orth">    0.05    0.05</time>
   <time name="total">   15.37   15.38</time>
   <energy>
    <i name="e_fr_energy">     -0.53818236 </i>
    <i name="e_wo_entrp">     -0.38526417 </i>
    <i name="e_0_energy">     -0.46172327 </i>
   </energy>
  </scstep>
  <scstep>
   <time name="diag">    1.10    1.10</time>
   <time name="diis">    3.77    3.77</time>
   <time name="orth">    0.05    0.05</time>
   <time name="total">   15.38   15.38</time>
   <energy>
    <i name="e_fr_energy">     -0.53923809 </i>
    <i name="e_wo_entrp">     -0.37204261 </i>
    <i name="e_0_energy">     -0.45564035 </i>
   </energy>
  </scstep>
  <scstep>
   <time name="diag">    1.10    1.10</time>
   <time name="diis">    3.80    3.80</time>
   <time name="orth">    0.05    0.05</time>
   <time name="total">   15.42   15.46</time>
   <energy>
    <i name="e_fr_energy">     -0.53902742 </i>
    <i name="e_wo_entrp">     -0.38025110 </i>
    <i name="e_0_energy">     -0.45963926 </i>
   </energy>
  </scstep>
  <scstep>
   <time name="diag">    1.10    1.10</time>
   <time name="diis">    3.96    3.96</time>
   <time name="orth">    0.05    0.05</time>
   <time name="total">   15.63   15.64</time>
   <energy>
    <i name="e_fr_energy">     -0.54771740 </i>
    <i name="e_wo_entrp">     -0.46878139 </i>
    <i name="e_0_energy">     -0.50824940 </i>
   </energy>
  </scstep>
  <scstep>
   <time name="diag">    1.10    1.10</time>
   <time name="diis">    3.72    3.73</time>
   <time name="orth">    0.05    0.05</time>
   <time name="total">   15.42   15.44</time>
   <energy>
    <i name="e_fr_energy">     -0.66852588 </i>
    <i name="e_wo_entrp">     -0.54251109 </i>
    <i name="e_0_energy">     -0.60551849 </i>
   </energy>
  </scstep>
  <scstep>
   <time name="diag">    1.10    1.10</time>
   <time name="diis">    3.78    3.80</time>
   <time name="orth">    0.05    0.05</time>
   <time name="total">   15.49   15.53</time>
   <energy>
    <i name="e_fr_energy">     -0.62767805 </i>
    <i name="e_wo_entrp">     -0.49933449 </i>
    <i name="e_0_energy">     -0.56350627 </i>
   </energy>
  </scstep>
  <scstep>
   <time name="diag">    1.10    1.10</time>
   <time name="diis">    3.74    3.74</time>
   <time name="orth">    0.04    0.05</time>
   <time name="total">   15.47   15.48</time>
   <energy>
    <i name="e_fr_energy">     -0.54443905 </i>
    <i name="e_wo_entrp">     -0.40883031 </i>
    <i name="e_0_energy">     -0.47663468 </i>
   </energy>
  </scstep>
  <scstep>
   <time name="diag">    1.10    1.10</time>
   <time name="diis">    3.77    3.77</time>
   <time name="orth">    0.04    0.05</time>
   <time name="total">   15.56   15.57</time>
   <energy>
    <i name="e_fr_energy">     -0.43545530 </i>
    <i name="e_wo_entrp">     -0.27065333 </i>
    <i name="e_0_energy">     -0.35305432 </i>
   </energy>
  </scstep>
  <scstep>
   <time name="diag">    1.10    1.10</time>
   <time name="diis">    3.74    3.76</time>
   <time name="orth">    0.05    0.05</time>
   <time name="total">   15.54   15.57</time>
   <energy>
    <i name="e_fr_energy">     -0.52451370 </i>
    <i name="e_wo_entrp">     -0.38008216 </i>
    <i name="e_0_energy">     -0.45229793 </i>
   </energy>
  </scstep>
  <scstep>
   <time name="diag">    1.10    1.10</time>
   <time name="diis">    3.78    3.78</time>
   <time name="orth">    0.05    0.05</time>
   <time name="total">   15.62   15.63</time>
   <energy>
    <i name="e_fr_energy">     -0.45939456 </i>
    <i name="e_wo_entrp">     -0.32523303 </i>
    <i name="e_0_energy">     -0.39231379 </i>
   </energy>
  </scstep>
  <scstep>
   <time name="diag">    1.10    1.10</time>
   <time name="diis">    3.77    3.77</time>
   <time name="orth">    0.05    0.05</time>
   <time name="total">   15.62   15.65</time>
   <energy>
    <i name="e_fr_energy">     -0.57182811 </i>
    <i name="e_wo_entrp">     -0.52801395 </i>
    <i name="e_0_energy">     -0.54992103 </i>
   </energy>
  </scstep>
  <scstep>
   <time name="diag">    1.09    1.10</time>
   <time name="diis">    3.77    3.77</time>
   <time name="orth">    0.05    0.05</time>
   <time name="total">   15.66   15.68</time>
   <energy>
    <i name="e_fr_energy">     -0.56125444 </i>
    <i name="e_wo_entrp">     -0.47440987 </i>
    <i name="e_0_energy">     -0.51783216 </i>
   </energy>
  </scstep>
  <scstep>
   <time name="diag">    1.10    1.10</time>
   <time name="diis">    4.00    4.00</time>
   <time name="orth">    0.05    0.05</time>
   <time name="total">   15.95   15.95</time>
   <energy>
    <i name="e_fr_energy">     -0.51538758 </i>
    <i name="e_wo_entrp">     -0.39013405 </i>
    <i name="e_0_energy">     -0.45276082 </i>
   </energy>
  </scstep>
  <scstep>
   <time name="diag">    1.10    1.10</time>
   <time name="diis">    3.98    4.00</time>
   <time name="orth">    0.05    0.05</time>
   <time name="total">   15.96   15.98</time>
   <energy>
    <i name="e_fr_energy">     -0.58405985 </i>
    <i name="e_wo_entrp">     -0.52995337 </i>
    <i name="e_0_energy">     -0.55700661 </i>
   </energy>
  </scstep>
  <scstep>
   <time name="diag">    1.10    1.10</time>
   <time name="diis">    3.77    3.77</time>
   <time name="orth">    0.04    0.05</time>
   <time name="total">   15.76   15.79</time>
   <energy>
    <i name="e_fr_energy">     -0.56591853 </i>
    <i name="e_wo_entrp">     -0.48846380 </i>
    <i name="e_0_energy">     -0.52719116 </i>
   </energy>
  </scstep>
  <scstep>
   <time name="diag">    1.09    1.10</time>
   <time name="diis">    3.74    3.74</time>
   <time name="orth">    0.05    0.05</time>
   <time name="total">   15.78   15.79</time>
   <energy>
    <i name="e_fr_energy">     -0.53132155 </i>
    <i name="e_wo_entrp">     -0.36950612 </i>
    <i name="e_0_energy">     -0.45041384 </i>
   </energy>
  </scstep>
  <scstep>
   <time name="diag">    1.08    1.10</time>
   <time name="diis">    4.00    4.00</time>
   <time name="orth">    0.05    0.05</time>
   <time name="total">   16.05   16.08</time>
   <energy>
    <i name="e_fr_energy">     -0.56576753 </i>
    <i name="e_wo_entrp">     -0.39861525 </i>
    <i name="e_0_energy">     -0.48219139 </i>
   </energy>
  </scstep>
  <scstep>
   <time name="diag">    1.10    1.10</time>
   <time name="diis">    3.79    3.79</time>
   <time name="orth">    0.04    0.05</time>
   <time name="total">   15.90   15.92</time>
   <energy>
    <i name="e_fr_energy">     -0.56184901 </i>
    <i name="e_wo_entrp">     -0.39471088 </i>
    <i name="e_0_energy">     -0.47827994 </i>
   </energy>
  </scstep>
  <scstep>
   <time name="diag">    1.10    1.10</time>
   <time name="diis">    4.26    4.27</time>
   <time name="orth">    0.05    0.05</time>
   <time name="total">   16.41   16.43</time>
   <energy>
    <i name="e_fr_energy">     -0.53296036 </i>
    <i name="e_wo_entrp">     -0.41264155 </i>
    <i name="e_0_energy">     -0.47280096 </i>
   </energy>
  </scstep>
  <scstep>
   <time name="diag">    1.10    1.10</time>
   <time name="diis">    3.79    3.79</time>
   <time name="orth">    0.05    0.05</time>
   <time name="total">   15.96   15.99</time>
   <energy>
    <i name="e_fr_energy">     -0.54393115 </i>
    <i name="e_wo_entrp">     -0.41609514 </i>
    <i name="e_0_energy">     -0.48001315 </i>
   </energy>
  </scstep>
  <scstep>
   <time name="diag">    1.10    1.10</time>
   <time name="diis">    3.77    3.77</time>
   <time name="orth">    0.05    0.05</time>
   <time name="total">   16.00   16.03</time>
   <energy>
    <i name="e_fr_energy">     -0.54138189 </i>
    <i name="e_wo_entrp">     -0.39471186 </i>
    <i name="e_0_energy">     -0.46804687 </i>
   </energy>
  </scstep>
  <scstep>
   <time name="diag">    1.10    1.10</time>
   <time name="diis">    3.78    3.78</time>
   <time name="orth">    0.05    0.05</time>
   <time name="total">   16.03   16.04</time>
   <energy>
    <i name="e_fr_energy">     -0.54738407 </i>
    <i name="e_wo_entrp">     -0.42128220 </i>
    <i name="e_0_energy">     -0.48433314 </i>
   </energy>
  </scstep>
  <scstep>
   <time name="diag">    1.10    1.10</time>
   <time name="diis">    3.73    3.74</time>
   <time name="orth">    0.05    0.05</time>
   <time name="total">   16.04   16.08</time>
   <energy>
    <i name="e_fr_energy">     -0.55283681 </i>
    <i name="e_wo_entrp">     -0.38640018 </i>
    <i name="e_0_energy">     -0.46961850 </i>
   </energy>
  </scstep>
  <scstep>
   <time name="diag">    1.10    1.10</time>
   <time name="diis">    3.78    3.78</time>
   <time name="orth">    0.05    0.05</time>
   <time name="total">   16.13   16.15</time>
   <energy>
    <i name="e_fr_energy">     -0.54087908 </i>
    <i name="e_wo_entrp">     -0.39223136 </i>
    <i name="e_0_energy">     -0.46655522 </i>
   </energy>
  </scstep>
  <scstep>
   <time name="diag">    1.10    1.10</time>
   <time name="diis">    3.96    3.96</time>
   <time name="orth">    0.05    0.05</time>
   <time name="total">   16.27   16.29</time>
   <energy>
    <i name="e_fr_energy">     -0.55746101 </i>
    <i name="e_wo_entrp">     -0.45287241 </i>
    <i name="e_0_energy">     -0.50516671 </i>
   </energy>
  </scstep>
  <scstep>
   <time name="diag">    1.10    1.10</time>
   <time name="diis">    3.76    3.77</time>
   <time name="orth">    0.04    0.05</time>
   <time name="total">   15.98   16.03</time>
   <energy>
    <i name="e_fr_energy">     -0.54261166 </i>
    <i name="e_wo_entrp">     -0.38535997 </i>
    <i name="e_0_energy">     -0.46398581 </i>
   </energy>
  </scstep>
  <scstep>
   <time name="diag">    1.10    1.10</time>
   <time name="diis">    3.79    3.79</time>
   <time name="orth">    0.04    0.05</time>
   <time name="total">   16.06   16.07</time>
   <energy>
    <i name="e_fr_energy">     -0.54400058 </i>
    <i name="e_wo_entrp">     -0.39556930 </i>
    <i name="e_0_energy">     -0.46978494 </i>
   </energy>
  </scstep>
  <scstep>
   <time name="diag">    1.10    1.10</time>
   <time name="diis">    3.76    3.78</time>
   <time name="orth">    0.04    0.05</time>
   <time name="total">   16.08   16.11</time>
   <energy>
    <i name="e_fr_energy">     -0.54425812 </i>
    <i name="e_wo_entrp">     -0.39926321 </i>
    <i name="e_0_energy">     -0.47176067 </i>
   </energy>
  </scstep>
  <scstep>
   <time name="diag">    1.10    1.10</time>
   <time name="diis">    3.75    3.75</time>
   <time name="orth">    0.04    0.05</time>
   <time name="total">   16.09   16.11</time>
   <energy>
    <i name="e_fr_energy">     -0.54442525 </i>
    <i name="e_wo_entrp">     -0.39657243 </i>
    <i name="e_0_energy">     -0.47049884 </i>
   </energy>
  </scstep>
  <scstep>
   <time name="diag">    1.10    1.10</time>
   <time name="diis">    3.75    3.75</time>
   <time name="orth">    0.04    0.05</time>
   <time name="total">   16.05   16.07</time>
   <energy>
    <i name="e_fr_energy">     -0.54530645 </i>
    <i name="e_wo_entrp">     -0.40694020 </i>
    <i name="e_0_energy">     -0.47612332 </i>
   </energy>
  </scstep>
  <scstep>
   <time name="diag">    1.10    1.10</time>
   <time name="diis">    3.76    3.78</time>
   <time name="orth">    0.05    0.05</time>
   <time name="total">   15.99   16.01</time>
   <energy>
    <i name="e_fr_energy">     -0.54422590 </i>
    <i name="e_wo_entrp">     -0.39411833 </i>
    <i name="e_0_energy">     -0.46917212 </i>
   </energy>
  </scstep>
  <scstep>
   <time name="diag">    1.10    1.10</time>
   <time name="diis">    3.79    3.79</time>
   <time name="orth">    0.04    0.05</time>
   <time name="total">   16.06   16.07</time>
   <energy>
    <i name="e_fr_energy">     -0.54457545 </i>
    <i name="e_wo_entrp">     -0.39596208 </i>
    <i name="e_0_energy">     -0.47026877 </i>
   </energy>
  </scstep>
  <scstep>
   <time name="diag">    1.10    1.10</time>
   <time name="diis">    3.11    3.11</time>
   <time name="orth">    0.04    0.05</time>
   <time name="total">   15.43   15.43</time>
   <energy>
    <i name="e_fr_energy">     -0.54453729 </i>
    <i name="e_wo_entrp">     -0.39750641 </i>
    <i name="e_0_energy">     -0.47102185 </i>
   </energy>
  </scstep>
  <scstep>
   <time name="diag">    1.10    1.10</time>
   <time name="diis">    3.32    3.32</time>
   <time name="orth">    0.05    0.05</time>
   <time name="total">   15.66   15.68</time>
   <energy>
    <i name="e_fr_energy">     -0.54465777 </i>
    <i name="e_wo_entrp">     -0.39962101 </i>
    <i name="e_0_energy">     -0.47213939 </i>
   </energy>
  </scstep>
  <scstep>
   <time name="diag">    1.10    1.10</time>
   <time name="diis">    3.51    3.51</time>
   <time name="orth">    0.05    0.05</time>
   <time name="total">   15.81   15.83</time>
   <energy>
    <i name="e_fr_energy">     -0.54460503 </i>
    <i name="e_wo_entrp">     -0.39640582 </i>
    <i name="e_0_energy">     -0.47050543 </i>
   </energy>
  </scstep>
  <scstep>
   <time name="diag">    1.10    1.10</time>
   <time name="diis">    3.34    3.34</time>
   <time name="orth">    0.05    0.05</time>
   <time name="total">   15.57   15.58</time>
   <energy>
    <i name="e_fr_energy">     -0.54462439 </i>
    <i name="e_wo_entrp">     -0.39785643 </i>
    <i name="e_0_energy">     -0.47124041 </i>
   </energy>
  </scstep>
  <scstep>
   <time name="diag">    1.10    1.10</time>
   <time name="diis">    2.94    2.94</time>
   <time name="orth">    0.05    0.05</time>
   <time name="total">   15.18   15.22</time>
   <energy>
    <i name="e_fr_energy">     -0.54465436 </i>
    <i name="e_wo_entrp">     -0.39779841 </i>
    <i name="e_0_energy">     -0.47122639 </i>
   </energy>
  </scstep>
  <scstep>
   <time name="diag">    1.10    1.10</time>
   <time name="diis">    2.92    2.92</time>
   <time name="orth">    0.05    0.05</time>
   <time name="total">   15.24   15.25</time>
   <energy>
    <i name="e_fr_energy">     -0.54465681 </i>
    <i name="e_wo_entrp">     -0.39778080 </i>
    <i name="e_0_energy">     -0.47121880 </i>
   </energy>
  </scstep>
  <scstep>
   <time name="diag">    1.09    1.10</time>
   <time name="diis">    2.93    2.93</time>
   <time name="orth">    0.05    0.05</time>
   <time name="total">   15.27   15.28</time>
   <energy>
    <i name="e_fr_energy">     -0.54466328 </i>
    <i name="e_wo_entrp">     -0.39777488 </i>
    <i name="e_0_energy">     -0.47121908 </i>
   </energy>
  </scstep>
  <scstep>
   <time name="diag">    1.10    1.10</time>
   <time name="diis">    2.91    2.91</time>
   <time name="orth">    0.05    0.05</time>
   <time name="total">   15.21   15.24</time>
   <energy>
    <i name="e_fr_energy">     -0.54467022 </i>
    <i name="e_wo_entrp">     -0.39774824 </i>
    <i name="e_0_energy">     -0.47120923 </i>
   </energy>
  </scstep>
  <scstep>
   <time name="diag">    1.10    1.10</time>
   <time name="diis">    2.92    2.92</time>
   <time name="orth">    0.05    0.05</time>
   <time name="total">   15.16   15.17</time>
   <energy>
    <i name="e_fr_energy">     -0.54467531 </i>
    <i name="e_wo_entrp">     -0.39780521 </i>
    <i name="e_0_energy">     -0.47124026 </i>
   </energy>
  </scstep>
  <scstep>
   <time name="diag">    1.10    1.10</time>
   <time name="diis">    2.95    2.95</time>
   <time name="orth">    0.05    0.05</time>
   <time name="total">   12.84   12.85</time>
   <energy>
    <i name="alphaZ">      0.00563328 </i>
    <i name="ewald">    -10.66733701 </i>
    <i name="hartreedc">   -488.99419155 </i>
    <i name="XCdc">     29.17414765 </i>
    <i name="pawpsdc">    458.68630507 </i>
    <i name="pawaedc">   -452.47049936 </i>
    <i name="eentropy">     -0.14685875 </i>
[...]
   <time name="orth">    0.04    0.05</time>
   <time name="total">   14.71   14.72</time>
   <energy>
    <i name="e_fr_energy">     -1.76540149 </i>
    <i name="e_wo_entrp">     -1.75189011 </i>
    <i name="e_0_energy">     -1.75864580 </i>
   </energy>
  </scstep>
  <scstep>
   <time name="diag">    1.10    1.10</time>
   <time name="diis">    2.42    2.42</time>
   <time name="orth">    0.05    0.05</time>
   <time name="total">   14.61   14.62</time>
   <energy>
    <i name="e_fr_energy">     -1.76540262 </i>
    <i name="e_wo_entrp">     -1.75189092 </i>
    <i name="e_0_energy">     -1.75864677 </i>
   </energy>
  </scstep>
  <scstep>
   <time name="diag">    1.10    1.10</time>
   <time name="diis">    2.41    2.43</time>
   <time name="orth">    0.05    0.05</time>
   <time name="total">   12.31   12.35</time>
   <energy>
    <i name="alphaZ">      0.00563328 </i>
    <i name="ewald">     46.62756994 </i>
    <i name="hartreedc">   -544.50543338 </i>
    <i name="XCdc">     29.01502154 </i>
    <i name="pawpsdc">    453.16935285 </i>
    <i name="pawaedc">   -446.93463073 </i>
    <i name="eentropy">     -0.01351196 </i>
    <i name="bandstr">   -118.63253205 </i>
    <i name="atom">    579.50312721 </i>
    <i name="e_fr_energy">     -1.76540331 </i>
    <i name="e_wo_entrp">     -1.75189135 </i>
    <i name="e_0_energy">     -1.75864733 </i>
   </energy>
  </scstep>
  <structure>
   <crystal>
    <varray name="basis" >
     <v>      30.00000000       0.00000000       0.00000000 </v>
     <v>       0.00000000      30.00000000       0.00000000 </v>
     <v>       0.00000000       0.00000000      30.00000000 </v>
    </varray>
    <i name="volume">  27000.00000000 </i>
    <varray name="rec_basis" >
     <v>       0.03333333       0.00000000       0.00000000 </v>
     <v>       0.00000000       0.03333333       0.00000000 </v>
     <v>       0.00000000       0.00000000       0.03333333 </v>
    </varray>
   </crystal>
   <varray name="positions" >
    <v>       0.51185456       0.51242010       0.58828182 </v>
    <v>       0.57678444       0.58185190       0.55527618 </v>
   </varray>
  </structure>
  <varray name="forces" >
   <v>       1.24074559       1.32670829      -0.63051580 </v>
   <v>      -1.24074559      -1.32670829       0.63051580 </v>
  </varray>
  <varray name="stress" >
   <v>      -0.14741952      -0.15330060       0.07284972 </v>
   <v>      -0.15330060      -0.16802017       0.07791274 </v>
   <v>       0.07284972       0.07791274      -0.04105770 </v>
  </varray>
  <energy>
   <i name="e_fr_energy">     -1.77503929 </i>
   <i name="e_wo_entrp">     -1.76828331 </i>
   <i name="e_0_energy">     -0.01351196 </i>
  </energy>
  <time name="totalsc"> 1615.53 3098.89</time>
 </calculation>
 <calculation>
  <scstep>
   <time name="dav">    6.26    6.27</time>
   <time name="total">   16.41   16.42</time>
   <energy>
    <i name="alphaZ">      0.00563328 </i>
    <i name="ewald">   1826.62325399 </i>
    <i name="hartreedc">   -835.51315081 </i>
    <i name="XCdc">     35.09509093 </i>
    <i name="pawpsdc">    453.16936855 </i>
    <i name="pawaedc">   -446.93464625 </i>
    <i name="eentropy">     -0.00000421 </i>
    <i name="bandstr">   -490.95920434 </i>
    <i name="atom">    579.50312721 </i>
    <i name="e_fr_energy">   1120.98946834 </i>
    <i name="e_wo_entrp">   1120.98947255 </i>
    <i name="e_0_energy">   1120.98947044 </i>
   </energy>
  </scstep>
  <scstep>
   <time name="diag">    1.10    1.10</time>
   <time name="diis">    3.91    3.92</time>
   <time name="orth">    0.05    0.05</time>
   <time name="total">   15.16   15.18</time>
   <energy>
    <i name="e_fr_energy">   1122.54944354 </i>
    <i name="e_wo_entrp">   1122.57884466 </i>
    <i name="e_0_energy">   1122.56414410 </i>
   </energy>
  </scstep>
  <scstep>
   <time name="diag">    1.10    1.10</time>
   <time name="diis">    4.23    4.23</time>
   <time name="orth">    0.04    0.05</time>
   <time name="total">   15.68   15.69</time>
   <energy>
    <i name="e_fr_energy">   1126.65392943 </i>
    <i name="e_wo_entrp">   1126.66486474 </i>
    <i name="e_0_energy">   1126.65939708 </i>
   </energy>
  </scstep>
  <scstep>
   <time name="diag">    1.65    1.65</time>
   <time name="diis">    4.54    4.55</time>
   <time name="orth">    0.04    0.05</time>
   <time name="total">   16.21   16.22</time>
   <energy>
    <i name="e_fr_energy">   1127.06193318 </i>
    <i name="e_wo_entrp">   1127.06193318 </i>
    <i name="e_0_energy">   1127.06193318 </i>
   </energy>
  </scstep>
  <scstep>
   <time name="diag">    1.10    1.10</time>
   <time name="diis">    3.80    3.81</time>
   <time name="orth">    0.05    0.05</time>
   <time name="total">   15.10   15.13</time>
   <energy>
    <i name="e_fr_energy">   1127.10785753 </i>
    <i name="e_wo_entrp">   1127.10785753 </i>
    <i name="e_0_energy">   1127.10785753 </i>
   </energy>
  </scstep>
  <scstep>
   <time name="diag">    1.59    1.60</time>
   <time name="diis">    4.33    4.33</time>
   <time name="orth">    0.05    0.05</time>
   <time name="total">   15.94   15.97</time>
   <energy>
    <i name="e_fr_energy">   1126.64540345 </i>
    <i name="e_wo_entrp">   1126.64540345 </i>
    <i name="e_0_energy">   1126.64540345 </i>
   </energy>
  </scstep>
  <scstep>
   <time name="diag">    1.10    1.10</time>
   <time name="diis">    3.77    3.78</time>
   <time name="orth">    0.05    0.05</time>
   <time name="total">   14.91   14.92</time>
   <energy>
    <i name="e_fr_energy">   1126.47110489 </i>
    <i name="e_wo_entrp">   1126.47110489 </i>
    <i name="e_0_energy">   1126.47110489 </i>
   </energy>
  </scstep>
  <scstep>
   <time name="diag">    1.10    1.10</time>
   <time name="diis">    3.76    3.77</time>
   <time name="orth">    0.04    0.05</time>
   <time name="total">   14.90   14.93</time>
   <energy>
    <i name="e_fr_energy">   1126.11524357 </i>
    <i name="e_wo_entrp">   1126.11524357 </i>
    <i name="e_0_energy">   1126.11524357 </i>
   </energy>
  </scstep>
  <scstep>
   <time name="diag">    1.10    1.10</time>
   <time name="diis">    3.75    3.75</time>
   <time name="orth">    0.05    0.05</time>
   <time name="total">   14.90   14.92</time>
   <energy>
    <i name="e_fr_energy">   1126.03489078 </i>
    <i name="e_wo_entrp">   1126.03489078 </i>
    <i name="e_0_energy">   1126.03489078 </i>
   </energy>
  </scstep>
  <scstep>
   <time name="diag">    1.10    1.10</time>
   <time name="diis">    3.76    3.76</time>
   <time name="orth">    0.05    0.05</time>
   <time name="total">   14.93   14.94</time>
   <energy>
    <i name="e_fr_energy">   1125.94483046 </i>
    <i name="e_wo_entrp">   1125.94483046 </i>
    <i name="e_0_energy">   1125.94483046 </i>
   </energy>
  </scstep>
  <scstep>
   <time name="diag">    1.10    1.10</time>
   <time name="diis">    3.76    3.78</time>
   <time name="orth">    0.04    0.05</time>
   <time name="total">   14.95   14.97</time>
   <energy>
    <i name="e_fr_energy">   1125.89015766 </i>
    <i name="e_wo_entrp">   1125.89015766 </i>
    <i name="e_0_energy">   1125.89015766 </i>
   </energy>
  </scstep>
  <scstep>
   <time name="diag">    1.10    1.10</time>
   <time name="diis">    3.77    3.77</time>
   <time name="orth">    0.04    0.05</time>
   <time name="total">   15.00   15.02</time>
   <energy>
    <i name="e_fr_energy">   1125.86488801 </i>
    <i name="e_wo_entrp">   1125.86488801 </i>
    <i name="e_0_energy">   1125.86488801 </i>
   </energy>
  </scstep>
  <scstep>
   <time name="diag">    1.10    1.10</time>
   <time name="diis">    3.77    3.77</time>
   <time name="orth">    0.05    0.05</time>
   <time name="total">   15.00   15.01</time>
   <energy>
    <i name="e_fr_energy">   1125.85627117 </i>
    <i name="e_wo_entrp">   1125.85627117 </i>
    <i name="e_0_energy">   1125.85627117 </i>
   </energy>
  </scstep>
  <scstep>
   <time name="diag">    1.10    1.10</time>
   <time name="diis">    3.76    3.78</time>
   <time name="orth">    0.05    0.05</time>
   <time name="total">   15.01   15.04</time>
   <energy>
    <i name="e_fr_energy">   1125.84507595 </i>
    <i name="e_wo_entrp">   1125.84507595 </i>
    <i name="e_0_energy">   1125.84507595 </i>
   </energy>
  </scstep>
  <scstep>
   <time name="diag">    1.10    1.10</time>
   <time name="diis">    3.78    3.78</time>
   <time name="orth">    0.05    0.05</time>
   <time name="total">   15.03   15.05</time>
   <energy>
    <i name="e_fr_energy">   1125.83685389 </i>
    <i name="e_wo_entrp">   1125.83685389 </i>
    <i name="e_0_energy">   1125.83685389 </i>
   </energy>
  </scstep>
  <scstep>
   <time name="diag">    1.10    1.10</time>
   <time name="diis">    3.78    3.78</time>
   <time name="orth">    0.05    0.05</time>
   <time name="total">   15.07   15.07</time>
   <energy>
    <i name="e_fr_energy">   1125.82941462 </i>
    <i name="e_wo_entrp">   1125.82941462 </i>
    <i name="e_0_energy">   1125.82941462 </i>
   </energy>
  </scstep>
  <scstep>
   <time name="diag">    1.10    1.10</time>
   <time name="diis">    3.74    3.75</time>
   <time name="orth">    0.05    0.05</time>
   <time name="total">   15.04   15.07</time>
   <energy>
    <i name="e_fr_energy">   1125.82762657 </i>
    <i name="e_wo_entrp">   1125.82762657 </i>
    <i name="e_0_energy">   1125.82762657 </i>
   </energy>
  </scstep>
  <scstep>
   <time name="diag">    1.10    1.10</time>
   <time name="diis">    3.92    3.92</time>
   <time name="orth">    0.05    0.05</time>
   <time name="total">   15.24   15.26</time>
   <energy>
    <i name="e_fr_energy">   1125.82715788 </i>
    <i name="e_wo_entrp">   1125.82715788 </i>
    <i name="e_0_energy">   1125.82715788 </i>
   </energy>
  </scstep>
  <scstep>
   <time name="diag">    1.16    1.16</time>
   <time name="diis">    3.77    3.77</time>
   <time name="orth">    0.05    0.05</time>
   <time name="total">   15.17   15.17</time>
   <energy>
    <i name="e_fr_energy">   1125.82609050 </i>
    <i name="e_wo_entrp">   1125.82609050 </i>
    <i name="e_0_energy">   1125.82609050 </i>
   </energy>
  </scstep>
  <scstep>
   <time name="diag">    1.08    1.10</time>
   <time name="diis">    3.74    3.74</time>
   <time name="orth">    0.05    0.05</time>
   <time name="total">   15.09   15.11</time>
   <energy>
    <i name="e_fr_energy">   1125.82479226 </i>
    <i name="e_wo_entrp">   1125.82479226 </i>
    <i name="e_0_energy">   1125.82479226 </i>
   </energy>
  </scstep>
  <scstep>
   <time name="diag">    1.10    1.10</time>
   <time name="diis">    3.74    3.74</time>
   <time name="orth">    0.05    0.05</time>
   <time name="total">   15.10   15.13</time>
   <energy>
    <i name="e_fr_energy">   1125.82443752 </i>
    <i name="e_wo_entrp">   1125.82443752 </i>
    <i name="e_0_energy">   1125.82443752 </i>
   </energy>
  </scstep>
  <scstep>
   <time name="diag">    1.10    1.10</time>
   <time name="diis">    3.73    3.73</time>
   <time name="orth">    0.05    0.05</time>
   <time name="total">   15.13   15.14</time>
   <energy>
    <i name="e_fr_energy">   1125.82417126 </i>
    <i name="e_wo_entrp">   1125.82417126 </i>
    <i name="e_0_energy">   1125.82417126 </i>
   </energy>
  </scstep>
  <scstep>
   <time name="diag">    1.08    1.10</time>
   <time name="diis">    3.74    3.74</time>
   <time name="orth">    0.04    0.05</time>
   <time name="total">   15.14   15.17</time>
   <energy>
    <i name="e_fr_energy">   1125.82427010 </i>
    <i name="e_wo_entrp">   1125.82427010 </i>
    <i name="e_0_energy">   1125.82427010 </i>
   </energy>
  </scstep>
  <scstep>
   <time name="diag">    1.09    1.10</time>
   <time name="diis">    3.74    3.73</time>
   <time name="orth">    0.05    0.05</time>
   <time name="total">   15.17   15.18</time>
   <energy>
    <i name="e_fr_energy">   1125.82393721 </i>
    <i name="e_wo_entrp">   1125.82393721 </i>
    <i name="e_0_energy">   1125.82393721 </i>
   </energy>
  </scstep>
  <scstep>
   <time name="diag">    1.09    1.10</time>
   <time name="diis">    3.72    3.72</time>
   <time name="orth">    0.04    0.05</time>
   <time name="total">   15.19   15.19</time>
   <energy>
    <i name="e_fr_energy">   1125.82390825 </i>
    <i name="e_wo_entrp">   1125.82390825 </i>
    <i name="e_0_energy">   1125.82390825 </i>
   </energy>
  </scstep>
  <scstep>
   <time name="diag">    1.08    1.10</time>
   <time name="diis">    3.76    3.76</time>
   <time name="orth">    0.04    0.05</time>
   <time name="total">   15.23   15.26</time>
   <energy>
    <i name="e_fr_energy">   1125.82376392 </i>
    <i name="e_wo_entrp">   1125.82376392 </i>
    <i name="e_0_energy">   1125.82376392 </i>
   </energy>
  </scstep>
  <scstep>
   <time name="diag">    1.10    1.10</time>
   <time name="diis">    3.74    3.74</time>
   <time name="orth">    0.05    0.05</time>
   <time name="total">   15.25   15.27</time>
   <energy>
    <i name="e_fr_energy">   1125.82368553 </i>
    <i name="e_wo_entrp">   1125.82368553 </i>
    <i name="e_0_energy">   1125.82368553 </i>
   </energy>
  </scstep>
  <scstep>
   <time name="diag">    1.10    1.10</time>
   <time name="diis">    3.74    3.74</time>
   <time name="orth">    0.05    0.05</time>
   <time name="total">   15.29   15.30</time>
   <energy>
    <i name="e_fr_energy">   1125.82360002 </i>
    <i name="e_wo_entrp">   1125.82360002 </i>
    <i name="e_0_energy">   1125.82360002 </i>
   </energy>
  </scstep>
  <scstep>
   <time name="diag">    1.10    1.10</time>
   <time name="diis">    3.74    3.74</time>
   <time name="orth">    0.04    0.05</time>
   <time name="total">   15.31   15.32</time>
   <energy>
    <i name="e_fr_energy">   1125.82338498 </i>
    <i name="e_wo_entrp">   1125.82338498 </i>
    <i name="e_0_energy">   1125.82338498 </i>
   </energy>
  </scstep>
  <scstep>
   <time name="diag">    1.10    1.10</time>
   <time name="diis">    3.49    3.49</time>
   <time name="orth">    0.04    0.05</time>
   <time name="total">   15.09   15.11</time>
   <energy>
    <i name="e_fr_energy">   1125.82335749 </i>
    <i name="e_wo_entrp">   1125.82335749 </i>
    <i name="e_0_energy">   1125.82335749 </i>
   </energy>
  </scstep>
  <scstep>
   <time name="diag">    1.10    1.10</time>
   <time name="diis">    3.49    3.49</time>
   <time name="orth">    0.05    0.05</time>
   <time name="total">   15.13   15.14</time>
   <energy>
    <i name="e_fr_energy">   1125.82334499 </i>
    <i name="e_wo_entrp">   1125.82334499 </i>
    <i name="e_0_energy">   1125.82334499 </i>
   </energy>
  </scstep>
  <scstep>
   <time name="diag">    1.09    1.09</time>
   <time name="diis">    3.49    3.49</time>
   <time name="orth">    0.05    0.05</time>
   <time name="total">   15.15   15.18</time>
   <energy>
    <i name="e_fr_energy">   1125.82332891 </i>
    <i name="e_wo_entrp">   1125.82332891 </i>
    <i name="e_0_energy">   1125.82332891 </i>
   </energy>
  </scstep>
  <scstep>
   <time name="diag">    1.10    1.10</time>
   <time name="diis">    3.49    3.49</time>
   <time name="orth">    0.05    0.05</time>
   <time name="total">   15.19   15.20</time>
   <energy>
    <i name="e_fr_energy">   1125.82332560 </i>
    <i name="e_wo_entrp">   1125.82332560 </i>
    <i name="e_0_energy">   1125.82332560 </i>
   </energy>
  </scstep>
  <scstep>
   <time name="diag">    1.10    1.10</time>
   <time name="diis">    3.31    3.31</time>
   <time name="orth">    0.05    0.05</time>
   <time name="total">   15.05   15.06</time>
   <energy>
    <i name="e_fr_energy">   1125.82332393 </i>
    <i name="e_wo_entrp">   1125.82332393 </i>
    <i name="e_0_energy">   1125.82332393 </i>
   </energy>
  </scstep>
  <scstep>
   <time name="diag">    1.10    1.10</time>
   <time name="diis">    2.88    2.88</time>
   <time name="orth">    0.05    0.05</time>
   <time name="total">   12.78   12.81</time>
   <energy>
    <i name="alphaZ">      0.00563328 </i>
    <i name="ewald">   1826.62325399 </i>
    <i name="hartreedc">   -907.63241509 </i>
    <i name="XCdc">     38.46794529 </i>
    <i name="pawpsdc">  15585.85821833 </i>
    <i name="pawaedc"> -15583.85191245 </i>
    <i name="eentropy">     -0.00000000 </i>
    <i name="bandstr">   -413.15052635 </i>
    <i name="atom">    579.50312721 </i>
    <i name="e_fr_energy">   1125.82332421 </i>
    <i name="e_wo_entrp">   1125.82332421 </i>
    <i name="e_0_energy">   1125.82332421 </i>
   </energy>
  </scstep>
  <structure>
   <crystal>
    <varray name="basis" >
     <v>      30.00000000       0.00000000       0.00000000 </v>
     <v>       0.00000000      30.00000000       0.00000000 </v>
     <v>       0.00000000       0.00000000      30.00000000 </v>
    </varray>
    <i name="volume">  27000.00000000 </i>
    <varray name="rec_basis" >
     <v>       0.03333333       0.00000000       0.00000000 </v>
     <v>       0.00000000       0.03333333       0.00000000 </v>
     <v>       0.00000000       0.00000000       0.03333333 </v>
    </varray>
   </crystal>
   <varray name="positions" >
    <v>       0.54394753       0.55002874       0.57263644 </v>
    <v>       0.54469147       0.54424326       0.57092156 </v>
   </varray>
  </structure>
  <varray name="forces" >
   <v>   -1206.83655699    9385.46364673    2781.94481704 </v>
   <v>    1206.83655699   -9385.46364673   -2781.94481704 </v>
  </varray>
  <varray name="stress" >
   <v>       1.55436348     -12.43047853      -3.68401211 </v>
   <v>     -12.43047855      96.62561058      28.65393874 </v>
   <v>      -3.68401214      28.65393875       8.44891686 </v>
  </varray>
  <energy>
   <i name="e_fr_energy">   1125.82332390 </i>
   <i name="e_wo_entrp">   1125.82332390 </i>
   <i name="e_0_energy">     -0.00000000 </i>
  </energy>
  <time name="totalsc">  559.58  560.25</time>
 </calculation>
 <calculation>
  <scstep>
   <time name="dav">    4.55    4.57</time>
   <time name="total">   14.52   14.54</time>
   <energy>
    <i name="alphaZ">      0.00563328 </i>
    <i name="ewald">    -12.37877368 </i>
    <i name="hartreedc">   -511.70970670 </i>
    <i name="XCdc">     40.96608231 </i>
    <i name="pawpsdc">  15585.82774733 </i>
    <i name="pawaedc"> -15583.82144120 </i>
    <i name="eentropy">     -0.00018560 </i>
    <i name="bandstr">    -64.23915397 </i>
    <i name="atom">    579.50312721 </i>
    <i name="e_fr_energy">     34.15332898 </i>
    <i name="e_wo_entrp">     34.15351458 </i>
    <i name="e_0_energy">     34.15342178 </i>
   </energy>
  </scstep>
  <scstep>
   <time name="diag">    1.09    1.10</time>
   <time name="diis">    5.71    5.71</time>
   <time name="orth">    0.04    0.05</time>
   <time name="total">   16.78   16.81</time>
   <energy>
    <i name="e_fr_energy">     64.09272479 </i>
    <i name="e_wo_entrp">     64.09272479 </i>
    <i name="e_0_energy">     64.09272479 </i>
   </energy>
  </scstep>
  <scstep>
   <time name="diag">    1.10    1.10</time>
   <time name="diis">    5.08    5.08</time>
   <time name="orth">    0.04    0.05</time>
   <time name="total">   16.45   16.45</time>
   <energy>
    <i name="e_fr_energy">     20.57352097 </i>
    <i name="e_wo_entrp">     20.57352097 </i>
    <i name="e_0_energy">     20.57352097 </i>
   </energy>
  </scstep>
  <scstep>
   <time name="diag">    1.72    1.72</time>
   <time name="diis">    5.63    5.63</time>
   <time name="orth">    0.05    0.05</time>
   <time name="total">   17.37   17.41</time>
   <energy>
    <i name="e_fr_energy">     57.34697937 </i>
    <i name="e_wo_entrp">     57.34697937 </i>
    <i name="e_0_energy">     57.34697937 </i>
   </energy>
  </scstep>
  <scstep>
   <time name="diag">    1.13    1.13</time>
   <time name="diis">    4.38    4.38</time>
   <time name="orth">    0.04    0.05</time>
   <time name="total">   15.81   15.83</time>
   <energy>
    <i name="e_fr_energy">     38.24090544 </i>
    <i name="e_wo_entrp">     38.24090545 </i>
    <i name="e_0_energy">     38.24090545 </i>
   </energy>
  </scstep>
  <scstep>
