<?xml version="1.0" encoding="ISO-8859-1"?>
<modeling>
 <generator>
  <i name="program" type="string">vasp </i>
  <i name="version" type="string">5.4.4.18Apr17-6-g9f103f2a35  </i>
  <i name="subversion" type="string">(build May 21 2019 18:55:53) complex            parallel </i>
  <i name="platform" type="string">IFC19_impi </i>
  <i name="date" type="string">2025 08 28 </i>
  <i name="time" type="string">10:32:07 </i>
 </generator>
 <incar>
  <i type="string" name="SYSTEM"> Co–organic framework</i>
  <i type="string" name="PREC">accurate   (precision level)</i>
  <i type="string" name="ALGO"> Fast       (SCF minimisation algorithm</i>
  <i type="int" name="ISPIN">     2</i>
  <i type="int" name="NELM">   100</i>
  <i type="int" name="NELMIN">     5</i>
  <i type="int" name="IBRION">     2</i>
  <i name="EDIFF">      0.00000100</i>
  <i name="EDIFFG">     -0.00500000</i>
  <i type="int" name="NSW">  1000</i>
  <i type="int" name="ISIF">     2</i>
  <i type="int" name="ISYM">     0</i>
  <i type="int" name="NBLOCK">     1</i>
  <i name="ENCUT">    520.00000000</i>
  <v name="MAGMOM">      0.00000000      0.00000000</v>
  <i type="string" name="LREAL"> Auto       (Projection operators: autom</i>
  <i type="int" name="ISMEAR">     0</i>
  <i name="SIGMA">      0.05000000</i>
  <i type="logical" name="LWAVE"> F  </i>
  <i type="logical" name="LCHARG"> T  </i>
  <v type="int" name="KPOINT_BSE">    -1     0     0     0</v>
  <i type="int" name="NELM">   100</i>
 </incar>
 <structure name="primitive_cell" >
  <crystal>
   <varray name="basis" >
    <v>      30.00000000       0.00000000       0.00000000 </v>
    <v>       0.00000000      30.00000000       0.00000000 </v>
    <v>       0.00000000       0.00000000      30.00000000 </v>
   </varray>
   <i name="volume">  27000.00000000 </i>
   <varray name="rec_basis" >
    <v>       0.03333333       0.00000000       0.00000000 </v>
    <v>       0.00000000       0.03333333       0.00000000 </v>
    <v>       0.00000000       0.00000000       0.03333333 </v>
   </varray>
  </crystal>
  <varray name="positions" >
   <v>       0.47980337       0.47486042      -0.39609316 </v>
   <v>      -0.39116437      -0.38058842      -0.46034884 </v>
  </varray>
 </structure>
 <varray name="primitive_index" >
  <v type="int" >        1 </v>
  <v type="int" >        2 </v>
 </varray>
 <kpoints>
  <generation param="Gamma">
   <v type="int" name="divisions">       1        1        1 </v>
   <v name="usershift">      0.00000000       0.00000000       0.00000000 </v>
   <v name="genvec1">      1.00000000       0.00000000       0.00000000 </v>
   <v name="genvec2">      0.00000000       1.00000000       0.00000000 </v>
   <v name="genvec3">      0.00000000       0.00000000       1.00000000 </v>
   <v name="shift">      0.00000000       0.00000000       0.00000000 </v>
  </generation>
  <varray name="kpointlist" >
   <v>       0.00000000       0.00000000       0.00000000 </v>
  </varray>
  <varray name="weights" >
   <v>       1.00000000 </v>
  </varray>
 </kpoints>
 <parameters>
  <separator name="general" >
   <i type="string" name="SYSTEM">Co–organic framework</i>
   <i type="logical" name="LCOMPAT"> F  </i>
  </separator>
  <separator name="electronic" >
   <i type="string" name="PREC">accura</i>
   <i name="ENMAX">    520.00000000</i>
   <i name="ENAUG">   1213.93000000</i>
   <i name="EDIFF">      0.00000100</i>
   <i type="int" name="IALGO">    68</i>
   <i type="int" name="IWAVPR">    11</i>
   <i type="int" name="NBANDS">    12</i>
   <i name="NELECT">     10.00000000</i>
   <i type="int" name="TURBO">     0</i>
   <i type="int" name="IRESTART">     0</i>
   <i type="int" name="NREBOOT">     0</i>
   <i type="int" name="NMIN">     0</i>
   <i name="EREF">      0.00000000</i>
   <separator name="electronic smearing" >
    <i type="int" name="ISMEAR">     0</i>
    <i name="SIGMA">      0.05000000</i>
    <i name="KSPACING">      0.50000000</i>
    <i type="logical" name="KGAMMA"> T  </i>
   </separator>
   <separator name="electronic projectors" >
    <i type="logical" name="LREAL"> T  </i>
    <v name="ROPT">     -0.00025000     -0.00025000</v>
    <i type="int" name="LMAXPAW">  -100</i>
    <i type="int" name="LMAXMIX">     2</i>
    <i type="logical" name="NLSPLINE"> F  </i>
   </separator>
   <separator name="electronic startup" >
    <i type="int" name="ISTART">     0</i>
    <i type="int" name="ICHARG">     2</i>
    <i type="int" name="INIWAV">     1</i>
   </separator>
   <separator name="electronic spin" >
    <i type="int" name="ISPIN">     2</i>
    <i type="logical" name="LNONCOLLINEAR"> F  </i>
    <v name="MAGMOM">      0.00000000      0.00000000</v>
    <i name="NUPDOWN">     -1.00000000</i>
    <i type="logical" name="LSORBIT"> F  </i>
    <v name="SAXIS">      0.00000000      0.00000000      1.00000000</v>
    <i type="logical" name="LSPIRAL"> F  </i>
    <v name="QSPIRAL">      0.00000000      0.00000000      0.00000000</v>
    <i type="logical" name="LZEROZ"> F  </i>
   </separator>
   <separator name="electronic exchange-correlation" >
    <i type="logical" name="LASPH"> F  </i>
    <i type="logical" name="LMETAGGA"> F  </i>
   </separator>
   <separator name="electronic convergence" >
    <i type="int" name="NELM">   100</i>
    <i type="int" name="NELMDL">     0</i>
    <i type="int" name="NELMIN">     5</i>
    <i name="ENINI">    520.00000000</i>
    <separator name="electronic convergence detail" >
     <i type="logical" name="LDIAG"> T  </i>
     <i type="logical" name="LSUBROT"> F  </i>
     <i name="WEIMIN">      0.00100000</i>
     <i name="EBREAK">      0.00000002</i>
     <i name="DEPER">      0.30000000</i>
     <i type="int" name="NRMM">     4</i>
     <i name="TIME">      0.40000000</i>
    </separator>
   </separator>
   <separator name="electronic mixer" >
    <i name="AMIX">      0.40000000</i>
    <i name="BMIX">      1.00000000</i>
    <i name="AMIN">      0.10000000</i>
    <i name="AMIX_MAG">      1.60000000</i>
    <i name="BMIX_MAG">      1.00000000</i>
    <separator name="electronic mixer details" >
     <i type="int" name="IMIX">     4</i>
     <i type="logical" name="MIXFIRST"> F  </i>
     <i type="int" name="MAXMIX">   -45</i>
     <i name="WC">    100.00000000</i>
     <i type="int" name="INIMIX">     1</i>
     <i type="int" name="MIXPRE">     1</i>
     <i type="int" name="MREMOVE">     5</i>
    </separator>
   </separator>
   <separator name="electronic dipolcorrection" >
    <i type="logical" name="LDIPOL"> F  </i>
    <i type="logical" name="LMONO"> F  </i>
    <i type="int" name="IDIPOL">     0</i>
    <i name="EPSILON">      1.00000000</i>
    <v name="DIPOL">   -100.00000000   -100.00000000   -100.00000000</v>
    <i name="EFIELD">      0.00000000</i>
   </separator>
  </separator>
  <separator name="grids" >
   <i type="int" name="NGX">   224</i>
   <i type="int" name="NGY">   224</i>
   <i type="int" name="NGZ">   224</i>
   <i type="int" name="NGXF">   448</i>
   <i type="int" name="NGYF">   448</i>
   <i type="int" name="NGZF">   448</i>
   <i type="logical" name="ADDGRID"> F  </i>
  </separator>
  <separator name="ionic" >
   <i type="int" name="NSW">  1000</i>
   <i type="int" name="IBRION">     2</i>
   <i type="int" name="MDALGO">     0</i>
   <i type="int" name="ISIF">     2</i>
   <i name="PSTRESS">      0.00000000</i>
   <i name="EDIFFG">     -0.00500000</i>
   <i type="int" name="NFREE">     1</i>
   <i name="POTIM">      0.50000000</i>
   <i name="SMASS">     -3.00000000</i>
   <i name="SCALEE">      1.00000000</i>
  </separator>
  <separator name="ionic md" >
   <i name="TEBEG">      0.00010000</i>
   <i name="TEEND">      0.00010000</i>
   <i type="int" name="NBLOCK">     1</i>
   <i type="int" name="KBLOCK">  1000</i>
   <i type="int" name="NPACO">   256</i>
   <i name="APACO">     16.00000000</i>
  </separator>
  <separator name="symmetry" >
   <i type="int" name="ISYM">     0</i>
   <i name="SYMPREC">      0.00001000</i>
  </separator>
  <separator name="dos" >
   <i type="int" name="LORBIT">     0</i>
   <v name="RWIGS">     -1.00000000     -1.00000000</v>
   <i type="int" name="NEDOS">   301</i>
   <i name="EMIN">     10.00000000</i>
   <i name="EMAX">    -10.00000000</i>
   <i name="EFERMI">      0.00000000</i>
  </separator>
  <separator name="writing" >
   <i type="int" name="NWRITE">     2</i>
   <i type="logical" name="LWAVE"> F  </i>
   <i type="logical" name="LDOWNSAMPLE"> F  </i>
   <i type="logical" name="LCHARG"> T  </i>
   <i type="logical" name="LPARD"> F  </i>
   <i type="logical" name="LVTOT"> F  </i>
   <i type="logical" name="LVHAR"> F  </i>
   <i type="logical" name="LELF"> F  </i>
   <i type="logical" name="LOPTICS"> F  </i>
   <v name="STM">      0.00000000      0.00000000      0.00000000      0.00000000      0.00000000      0.00000000      0.00000000</v>
  </separator>
  <separator name="performance" >
   <i type="int" name="NPAR">     6</i>
   <i type="int" name="NSIM">     4</i>
   <i type="int" name="NBLK">    -1</i>
   <i type="logical" name="LPLANE"> T  </i>
   <i type="logical" name="LSCALAPACK"> F  </i>
   <i type="logical" name="LSCAAWARE"> F  </i>
   <i type="logical" name="LSCALU"> F  </i>
   <i type="logical" name="LASYNC"> F  </i>
   <i type="logical" name="LORBITALREAL"> F  </i>
  </separator>
  <separator name="miscellaneous" >
   <i type="int" name="IDIOT">     3</i>
   <i type="int" name="ISPECIAL">     0</i>
   <i type="logical" name="LMUSIC"> F  </i>
   <v name="POMASS">     16.00000000     12.01100000</v>
   <v name="DARWINR">      0.00000000      0.00000000</v>
   <v name="DARWINV">      1.00000000      1.00000000</v>
   <i type="logical" name="LCORR"> T  </i>
  </separator>
  <i type="logical" name="GGA_COMPAT"> T  </i>
  <i type="logical" name="LBERRY"> F  </i>
  <i type="int" name="ICORELEVEL">     0</i>
  <i type="logical" name="LDAU"> F  </i>
  <i type="int" name="I_CONSTRAINED_M">     0</i>
  <separator name="electronic exchange-correlation" >
   <i type="string" name="GGA">--</i>
   <i type="int" name="VOSKOWN">     0</i>
   <i type="logical" name="LHFCALC"> F  </i>
   <i type="string" name="PRECFOCK"></i>
   <i type="logical" name="LSYMGRAD"> F  </i>
   <i type="logical" name="LHFONE"> F  </i>
   <i type="logical" name="LRHFCALC"> F  </i>
   <i type="logical" name="LTHOMAS"> F  </i>
   <i type="logical" name="LMODELHF"> F  </i>
   <i name="ENCUT4O">     -1.00000000</i>
   <i type="int" name="EXXOEP">     0</i>
   <i type="int" name="FOURORBIT">     0</i>
   <i name="AEXX">      0.00000000</i>
   <i name="HFALPHA">      0.00000000</i>
   <i name="MCALPHA">      0.00000000</i>
   <i name="ALDAX">      1.00000000</i>
   <i name="AGGAX">      1.00000000</i>
   <i name="ALDAC">      1.00000000</i>
   <i name="AGGAC">      1.00000000</i>
   <i type="int" name="NKREDX">     1</i>
   <i type="int" name="NKREDY">     1</i>
   <i type="int" name="NKREDZ">     1</i>
   <i type="logical" name="SHIFTRED"> F  </i>
   <i type="logical" name="ODDONLY"> F  </i>
   <i type="logical" name="EVENONLY"> F  </i>
   <i type="int" name="LMAXFOCK">     0</i>
   <i type="int" name="NMAXFOCKAE">     0</i>
   <i type="logical" name="LFOCKAEDFT"> F  </i>
   <i name="HFSCREEN">      0.00000000</i>
   <i name="HFSCREENC">      0.00000000</i>
   <i type="int" name="NBANDSGWLOW">     0</i>
  </separator>
  <separator name="vdW DFT" >
   <i type="logical" name="LUSE_VDW"> F  </i>
   <i name="Zab_VDW">     -0.84910000</i>
   <i name="PARAM1">      0.12340000</i>
   <i name="PARAM2">      1.00000000</i>
   <i name="PARAM3">      0.00000000</i>
  </separator>
  <separator name="model GW" >
   <i type="int" name="MODEL_GW">     0</i>
   <i name="MODEL_EPS0">   8100.00000000</i>
   <i name="MODEL_ALPHA">      1.00000000</i>
  </separator>
  <separator name="linear response parameters" >
   <i type="logical" name="LEPSILON"> F  </i>
   <i type="logical" name="LRPA"> F  </i>
   <i type="logical" name="LNABLA"> F  </i>
   <i type="logical" name="LVEL"> F  </i>
   <i type="int" name="KINTER">     0</i>
   <i name="CSHIFT">      0.10000000</i>
   <i name="OMEGAMAX">     -1.00000000</i>
   <i name="DEG_THRESHOLD">      0.00200000</i>
   <i name="RTIME">     -0.10000000</i>
   <i name="WPLASMAI">      0.00000000</i>
   <v name="DFIELD">      0.00000000      0.00000000      0.00000000</v>
   <v name="WPLASMA">      0.00000000      0.00000000      0.00000000      0.00000000      0.00000000      0.00000000      0.00000000      0.00000000      0.00000000</v>
  </separator>
  <separator name="orbital magnetization" >
   <i type="logical" name="NUCIND"> F  </i>
   <v name="MAGPOS">      0.00000000      0.00000000      0.00000000</v>
   <i type="logical" name="LNICSALL"> T  </i>
   <i type="logical" name="ORBITALMAG"> F  </i>
   <i type="logical" name="LMAGBLOCH"> F  </i>
   <i type="logical" name="LCHIMAG"> F  </i>
   <i type="logical" name="LGAUGE"> T  </i>
   <i type="int" name="MAGATOM">     0</i>
   <v name="MAGDIPOL">      0.00000000      0.00000000      0.00000000</v>
   <v name="AVECCONST">      0.00000000      0.00000000      0.00000000</v>
  </separator>
  <separator name="response functions" >
   <i type="logical" name="LADDER"> F  </i>
   <i type="logical" name="LRPAFORCE"> F  </i>
   <i type="logical" name="LFXC"> F  </i>
   <i type="logical" name="LHARTREE"> T  </i>
   <i type="int" name="IBSE">     0</i>
   <v type="int" name="KPOINT">    -1     0     0     0</v>
   <i type="logical" name="LTCTE"> F  </i>
   <i type="logical" name="LTETE"> F  </i>
   <i type="logical" name="LTRIPLET"> F  </i>
   <i type="logical" name="LFXCEPS"> F  </i>
   <i type="logical" name="LFXHEG"> F  </i>
   <i type="int" name="NATURALO">     2</i>
   <i type="logical" name="L2ORDER"> F  </i>
   <i type="logical" name="LMP2LT"> F  </i>
   <i type="logical" name="LUSEW"> F  </i>
   <i name="ENCUTGW">     -2.00000000</i>
   <i name="ENCUTGWSOFT">     -2.00000000</i>
   <i name="ENCUTLF">     -1.00000000</i>
   <i type="int" name="LMAXMP2">    -1</i>
   <i name="SCISSOR">      0.00000000</i>
   <i type="int" name="NOMEGA">     0</i>
   <i type="int" name="NOMEGAR">     0</i>
   <i type="int" name="NBANDSGW">    -1</i>
   <i type="int" name="NBANDSO">    -1</i>
   <i type="int" name="NBANDSV">    -1</i>
   <i type="int" name="NELM">   100</i>
   <i type="int" name="NELMHF">     1</i>
   <i type="int" name="DIM">     3</i>
   <i type="int" name="ANTIRES">     0</i>
   <i name="OMEGAMAX">    -30.00000000</i>
   <i name="OMEGAMIN">    -30.00000000</i>
   <i name="OMEGATL">   -200.00000000</i>
   <i type="int" name="OMEGAGRID">   140</i>
   <i name="CSHIFT">     -0.10000000</i>
   <i type="logical" name="SELFENERGY"> F  </i>
   <i type="logical" name="LSPECTRAL"> F  </i>
   <i type="logical" name="LSPECTRALGW"> F  </i>
   <i type="logical" name="LSINGLES"> F  </i>
   <i type="logical" name="LFERMIGW"> F  </i>
   <i type="logical" name="ODDONLYGW"> F  </i>
   <i type="logical" name="EVENONLYGW"> F  </i>
   <i type="int" name="NKREDLFX">     1</i>
   <i type="int" name="NKREDLFY">     1</i>
   <i type="int" name="NKREDLFZ">     1</i>
   <i type="int" name="MAXMEM">  2800</i>
   <i type="int" name="TELESCOPE">     0</i>
   <i type="int" name="TAUPAR">     1</i>
   <i type="int" name="OMEGAPAR">    -1</i>
   <i name="LAMBDA">      1.00000000</i>
  </separator>
  <separator name="External order field" >
   <i name="OFIELD_KAPPA">      0.00000000</i>
   <v name="OFIELD_K">      0.00000000      0.00000000      0.00000000</v>
   <i name="OFIELD_Q6_NEAR">      0.00000000</i>
   <i name="OFIELD_Q6_FAR">      0.00000000</i>
   <i name="OFIELD_A">      0.00000000</i>
  </separator>
  <separator name="solvation model" >
   <i type="logical" name="LSOL"> F  </i>
  </separator>
 </parameters>
 <atominfo>
  <atoms>       2 </atoms>
  <types>       2 </types>
  <array name="atoms" >
   <dimension dim="1">ion</dimension>
   <field type="string">element</field>
   <field type="int">atomtype</field>
   <set>
    <rc><c>O </c><c>   1</c></rc>
    <rc><c>C </c><c>   2</c></rc>
   </set>
  </array>
  <array name="atomtypes" >
   <dimension dim="1">type</dimension>
   <field type="int">atomspertype</field>
   <field type="string">element</field>
   <field>mass</field>
   <field>valence</field>
   <field type="string">pseudopotential</field>
   <set>
    <rc><c>   1</c><c>O </c><c>     16.00000000</c><c>      6.00000000</c><c>  PAW_PBE O_GW_new 19Mar2012            </c></rc>
    <rc><c>   1</c><c>C </c><c>     12.01100000</c><c>      4.00000000</c><c>  PAW_PBE C_GW_new 19Mar2012            </c></rc>
   </set>
  </array>
 </atominfo>
 <structure name="initialpos" >
  <crystal>
   <varray name="basis" >
    <v>      30.00000000       0.00000000       0.00000000 </v>
    <v>       0.00000000      30.00000000       0.00000000 </v>
    <v>       0.00000000       0.00000000      30.00000000 </v>
   </varray>
   <i name="volume">  27000.00000000 </i>
   <varray name="rec_basis" >
    <v>       0.03333333       0.00000000       0.00000000 </v>
    <v>       0.00000000       0.03333333       0.00000000 </v>
    <v>       0.00000000       0.00000000       0.03333333 </v>
   </varray>
  </crystal>
  <varray name="positions" >
   <v>       0.47980337       0.47486042       0.60390684 </v>
   <v>       0.60883563       0.61941158       0.53965116 </v>
  </varray>
 </structure>
 <calculation>
  <scstep>
   <time name="dav">    7.98    7.98</time>
   <time name="total">   16.71   16.71</time>
   <energy>
    <i name="alphaZ">      0.00563328 </i>
    <i name="ewald">    -10.68537377 </i>
    <i name="hartreedc">   -482.11065285 </i>
    <i name="XCdc">     29.02661077 </i>
    <i name="pawpsdc">    463.69512993 </i>
    <i name="pawaedc">   -457.43959568 </i>
    <i name="eentropy">     -0.06089022 </i>
    <i name="bandstr">    -59.10227058 </i>
    <i name="atom">    579.50312721 </i>
    <i name="e_fr_energy">     62.83171809 </i>
    <i name="e_wo_entrp">     62.89260830 </i>
    <i name="e_0_energy">     62.86216319 </i>
   </energy>
  </scstep>
  <scstep>
   <time name="dav">    6.24    6.25</time>
   <time name="total">    6.24    6.25</time>
   <energy>
    <i name="e_fr_energy">     36.80489787 </i>
    <i name="e_wo_entrp">     36.81480707 </i>
    <i name="e_0_energy">     36.80985247 </i>
   </energy>
  </scstep>
  <scstep>
   <time name="dav">    7.91    7.94</time>
   <time name="total">    7.91    7.94</time>
   <energy>
    <i name="e_fr_energy">      4.66590472 </i>
    <i name="e_wo_entrp">      4.66590472 </i>
    <i name="e_0_energy">      4.66590472 </i>
   </energy>
  </scstep>
  <scstep>
   <time name="dav">    4.55    4.57</time>
   <time name="total">    4.55    4.57</time>
   <energy>
    <i name="e_fr_energy">     -7.17624116 </i>
    <i name="e_wo_entrp">     -7.17624116 </i>
    <i name="e_0_energy">     -7.17624116 </i>
   </energy>
  </scstep>
  <scstep>
   <time name="dav">    4.56    4.56</time>
   <time name="total">    5.77    5.78</time>
   <energy>
    <i name="e_fr_energy">     -7.48580262 </i>
    <i name="e_wo_entrp">     -7.48580262 </i>
    <i name="e_0_energy">     -7.48580262 </i>
   </energy>
  </scstep>
  <scstep>
   <time name="diag">    1.10    1.10</time>
   <time name="diis">    3.77    3.77</time>
   <time name="orth">    0.05    0.05</time>
   <time name="total">   14.92   14.93</time>
   <energy>
    <i name="e_fr_energy">    -41.22884398 </i>
    <i name="e_wo_entrp">    -41.22884398 </i>
    <i name="e_0_energy">    -41.22884398 </i>
   </energy>
  </scstep>
  <scstep>
   <time name="diag">    1.10    1.10</time>
   <time name="diis">    3.94    3.94</time>
   <time name="orth">    0.05    0.05</time>
   <time name="total">   15.32   15.32</time>
   <energy>
    <i name="e_fr_energy">     -1.38394122 </i>
    <i name="e_wo_entrp">     -1.38309415 </i>
    <i name="e_0_energy">     -1.38351768 </i>
   </energy>
  </scstep>
  <scstep>
   <time name="diag">    1.11    1.11</time>
   <time name="diis">    4.18    4.18</time>
   <time name="orth">    0.04    0.05</time>
   <time name="total">   15.36   15.36</time>
   <energy>
    <i name="e_fr_energy">     -6.78970155 </i>
    <i name="e_wo_entrp">     -6.78970155 </i>
    <i name="e_0_energy">     -6.78970155 </i>
   </energy>
  </scstep>
  <scstep>
   <time name="diag">    1.10    1.10</time>
   <time name="diis">    4.35    4.35</time>
   <time name="orth">    0.05    0.05</time>
   <time name="total">   15.53   15.54</time>
   <energy>
    <i name="e_fr_energy">     -5.15502259 </i>
    <i name="e_wo_entrp">     -5.15502259 </i>
    <i name="e_0_energy">     -5.15502259 </i>
   </energy>
  </scstep>
  <scstep>
   <time name="diag">    1.10    1.11</time>
   <time name="diis">    4.45    4.45</time>
   <time name="orth">    0.04    0.05</time>
   <time name="total">   15.63   15.64</time>
   <energy>
    <i name="e_fr_energy">     -3.01164632 </i>
    <i name="e_wo_entrp">     -3.01164632 </i>
    <i name="e_0_energy">     -3.01164632 </i>
   </energy>
  </scstep>
  <scstep>
   <time name="diag">    1.10    1.10</time>
   <time name="diis">    3.78    3.78</time>
   <time name="orth">    0.05    0.05</time>
   <time name="total">   14.97   14.97</time>
   <energy>
    <i name="e_fr_energy">     -3.51187778 </i>
    <i name="e_wo_entrp">     -3.51187778 </i>
    <i name="e_0_energy">     -3.51187778 </i>
   </energy>
  </scstep>
  <scstep>
   <time name="diag">    1.10    1.10</time>
   <time name="diis">    4.34    4.34</time>
   <time name="orth">    0.05    0.05</time>
   <time name="total">   15.76   15.77</time>
   <energy>
    <i name="e_fr_energy">     -1.34526082 </i>
    <i name="e_wo_entrp">     -1.34446195 </i>
    <i name="e_0_energy">     -1.34486138 </i>
   </energy>
  </scstep>
  <scstep>
   <time name="diag">    1.10    1.10</time>
   <time name="diis">    3.79    3.79</time>
   <time name="orth">    0.04    0.05</time>
   <time name="total">   15.21   15.22</time>
   <energy>
    <i name="e_fr_energy">     -0.97151436 </i>
    <i name="e_wo_entrp">     -0.97151343 </i>
    <i name="e_0_energy">     -0.97151390 </i>
   </energy>
  </scstep>
  <scstep>
   <time name="diag">    1.10    1.10</time>
   <time name="diis">    3.73    3.73</time>
   <time name="orth">    0.05    0.05</time>
   <time name="total">   15.18   15.18</time>
   <energy>
    <i name="e_fr_energy">     -0.74451113 </i>
    <i name="e_wo_entrp">     -0.74195984 </i>
    <i name="e_0_energy">     -0.74323549 </i>
   </energy>
  </scstep>
  <scstep>
   <time name="diag">    1.10    1.10</time>
   <time name="diis">    4.63    4.63</time>
   <time name="orth">    0.04    0.05</time>
   <time name="total">   16.10   16.10</time>
   <energy>
    <i name="e_fr_energy">     -1.33826113 </i>
    <i name="e_wo_entrp">     -1.33744457 </i>
    <i name="e_0_energy">     -1.33785285 </i>
   </energy>
  </scstep>
  <scstep>
   <time name="diag">    1.10    1.10</time>
   <time name="diis">    4.38    4.38</time>
   <time name="orth">    0.05    0.05</time>
   <time name="total">   15.64   15.64</time>
   <energy>
    <i name="e_fr_energy">     -2.98351391 </i>
    <i name="e_wo_entrp">     -2.98351391 </i>
    <i name="e_0_energy">     -2.98351391 </i>
   </energy>
  </scstep>
  <scstep>
   <time name="diag">    1.10    1.10</time>
   <time name="diis">    3.77    3.77</time>
   <time name="orth">    0.05    0.05</time>
   <time name="total">   15.04   15.05</time>
   <energy>
    <i name="e_fr_energy">     -3.50945978 </i>
    <i name="e_wo_entrp">     -3.50945978 </i>
    <i name="e_0_energy">     -3.50945978 </i>
   </energy>
  </scstep>
  <scstep>
   <time name="diag">    1.10    1.10</time>
   <time name="diis">    3.76    3.76</time>
   <time name="orth">    0.05    0.05</time>
   <time name="total">   15.05   15.06</time>
   <energy>
    <i name="e_fr_energy">     -3.15859486 </i>
    <i name="e_wo_entrp">     -3.15859486 </i>
    <i name="e_0_energy">     -3.15859486 </i>
   </energy>
  </scstep>
  <scstep>
   <time name="diag">    1.10    1.10</time>
   <time name="diis">    4.44    4.44</time>
   <time name="orth">    0.04    0.05</time>
   <time name="total">   15.75   15.75</time>
   <energy>
    <i name="e_fr_energy">     -3.12116284 </i>
    <i name="e_wo_entrp">     -3.12116284 </i>
    <i name="e_0_energy">     -3.12116284 </i>
   </energy>
  </scstep>
  <scstep>
   <time name="diag">    1.10    1.10</time>
   <time name="diis">    4.18    4.18</time>
   <time name="orth">    0.05    0.05</time>
   <time name="total">   15.49   15.50</time>
   <energy>
    <i name="e_fr_energy">     -3.45149096 </i>
    <i name="e_wo_entrp">     -3.45149096 </i>
    <i name="e_0_energy">     -3.45149096 </i>
   </energy>
  </scstep>
  <scstep>
   <time name="diag">    1.10    1.10</time>
   <time name="diis">    4.16    4.16</time>
   <time name="orth">    0.05    0.05</time>
   <time name="total">   15.49   15.50</time>
   <energy>
    <i name="e_fr_energy">     -4.09076208 </i>
    <i name="e_wo_entrp">     -4.09076208 </i>
    <i name="e_0_energy">     -4.09076208 </i>
   </energy>
  </scstep>
  <scstep>
   <time name="diag">    1.10    1.10</time>
   <time name="diis">    4.16    4.16</time>
   <time name="orth">    0.04    0.05</time>
   <time name="total">   15.51   15.51</time>
   <energy>
    <i name="e_fr_energy">     -3.86960135 </i>
    <i name="e_wo_entrp">     -3.86960135 </i>
    <i name="e_0_energy">     -3.86960135 </i>
   </energy>
  </scstep>
  <scstep>
   <time name="diag">    1.10    1.10</time>
   <time name="diis">    4.38    4.38</time>
   <time name="orth">    0.04    0.05</time>
   <time name="total">   15.76   15.76</time>
   <energy>
    <i name="e_fr_energy">     -4.31049487 </i>
    <i name="e_wo_entrp">     -4.31049487 </i>
    <i name="e_0_energy">     -4.31049487 </i>
   </energy>
  </scstep>
  <scstep>
   <time name="diag">    1.10    1.10</time>
   <time name="diis">    4.40    4.40</time>
   <time name="orth">    0.04    0.05</time>
   <time name="total">   15.79   15.80</time>
   <energy>
    <i name="e_fr_energy">     -4.12381193 </i>
    <i name="e_wo_entrp">     -4.12381193 </i>
    <i name="e_0_energy">     -4.12381193 </i>
   </energy>
  </scstep>
  <scstep>
   <time name="diag">    1.10    1.10</time>
   <time name="diis">    3.75    3.75</time>
   <time name="orth">    0.05    0.05</time>
   <time name="total">   15.17   15.18</time>
   <energy>
    <i name="e_fr_energy">     -4.56901325 </i>
    <i name="e_wo_entrp">     -4.56901325 </i>
    <i name="e_0_energy">     -4.56901325 </i>
   </energy>
  </scstep>
  <scstep>
   <time name="diag">    1.10    1.10</time>
   <time name="diis">    4.16    4.16</time>
   <time name="orth">    0.05    0.05</time>
   <time name="total">   15.60   15.61</time>
   <energy>
    <i name="e_fr_energy">     -2.65024590 </i>
    <i name="e_wo_entrp">     -2.65024590 </i>
    <i name="e_0_energy">     -2.65024590 </i>
   </energy>
  </scstep>
  <scstep>
   <time name="diag">    1.10    1.10</time>
   <time name="diis">    4.35    4.35</time>
   <time name="orth">    0.05    0.05</time>
   <time name="total">   16.03   16.04</time>
   <energy>
    <i name="e_fr_energy">     -0.59731526 </i>
    <i name="e_wo_entrp">     -0.44564002 </i>
    <i name="e_0_energy">     -0.52147764 </i>
   </energy>
  </scstep>
  <scstep>
   <time name="diag">    1.10    1.10</time>
   <time name="diis">    4.17    4.18</time>
   <time name="orth">    0.05    0.05</time>
   <time name="total">   15.67   15.67</time>
   <energy>
    <i name="e_fr_energy">     -1.44572555 </i>
    <i name="e_wo_entrp">     -1.44572555 </i>
    <i name="e_0_energy">     -1.44572555 </i>
   </energy>
  </scstep>
  <scstep>
   <time name="diag">    1.10    1.10</time>
   <time name="diis">    3.74    3.75</time>
   <time name="orth">    0.05    0.05</time>
   <time name="total">   15.25   15.26</time>
   <energy>
    <i name="e_fr_energy">    -14.83423790 </i>
    <i name="e_wo_entrp">    -14.83423790 </i>
    <i name="e_0_energy">    -14.83423790 </i>
   </energy>
  </scstep>
  <scstep>
   <time name="diag">    1.10    1.10</time>
   <time name="diis">    4.34    4.33</time>
   <time name="orth">    0.05    0.05</time>
   <time name="total">   15.88   15.89</time>
   <energy>
    <i name="e_fr_energy">     -9.41444862 </i>
    <i name="e_wo_entrp">     -9.41444862 </i>
    <i name="e_0_energy">     -9.41444862 </i>
   </energy>
  </scstep>
  <scstep>
   <time name="diag">    1.10    1.10</time>
   <time name="diis">    3.72    3.72</time>
   <time name="orth">    0.05    0.05</time>
   <time name="total">   15.29   15.30</time>
   <energy>
    <i name="e_fr_energy">    -25.08470095 </i>
    <i name="e_wo_entrp">    -25.08470095 </i>
    <i name="e_0_energy">    -25.08470095 </i>
   </energy>
  </scstep>
  <scstep>
   <time name="diag">    1.10    1.10</time>
   <time name="diis">    3.72    3.72</time>
   <time name="orth">    0.05    0.05</time>
   <time name="total">   15.32   15.34</time>
   <energy>
    <i name="e_fr_energy">     -7.88109009 </i>
    <i name="e_wo_entrp">     -7.88109009 </i>
    <i name="e_0_energy">     -7.88109009 </i>
   </energy>
  </scstep>
  <scstep>
   <time name="diag">    1.10    1.10</time>
   <time name="diis">    3.76    3.76</time>
   <time name="orth">    0.05    0.05</time>
   <time name="total">   15.61   15.61</time>
   <energy>
    <i name="e_fr_energy">     -2.07770276 </i>
    <i name="e_wo_entrp">     -2.07770274 </i>
    <i name="e_0_energy">     -2.07770275 </i>
   </energy>
  </scstep>
  <scstep>
   <time name="diag">    1.10    1.10</time>
   <time name="diis">    3.74    3.74</time>
   <time name="orth">    0.05    0.05</time>
   <time name="total">   15.41   15.41</time>
   <energy>
    <i name="e_fr_energy">    -15.56834367 </i>
    <i name="e_wo_entrp">    -15.56834367 </i>
    <i name="e_0_energy">    -15.56834367 </i>
   </energy>
  </scstep>
  <scstep>
   <time name="diag">    1.10    1.10</time>
   <time name="diis">    4.20    4.20</time>
   <time name="orth">    0.04    0.05</time>
   <time name="total">   15.91   15.92</time>
   <energy>
    <i name="e_fr_energy">    -14.83506670 </i>
    <i name="e_wo_entrp">    -14.83506670 </i>
    <i name="e_0_energy">    -14.83506670 </i>
   </energy>
  </scstep>
  <scstep>
   <time name="diag">    1.10    1.10</time>
   <time name="diis">    3.74    3.74</time>
   <time name="orth">    0.05    0.05</time>
   <time name="total">   15.47   15.48</time>
   <energy>
    <i name="e_fr_energy">    -10.67196068 </i>
    <i name="e_wo_entrp">    -10.67196068 </i>
    <i name="e_0_energy">    -10.67196068 </i>
   </energy>
  </scstep>
  <scstep>
   <time name="diag">    1.10    1.10</time>
   <time name="diis">    4.16    4.16</time>
   <time name="orth">    0.05    0.05</time>
   <time name="total">   15.93   15.93</time>
   <energy>
    <i name="e_fr_energy">     -4.59370460 </i>
    <i name="e_wo_entrp">     -4.59370460 </i>
    <i name="e_0_energy">     -4.59370460 </i>
   </energy>
  </scstep>
  <scstep>
   <time name="diag">    1.10    1.10</time>
   <time name="diis">    4.33    4.33</time>
   <time name="orth">    0.05    0.05</time>
   <time name="total">   16.12   16.12</time>
   <energy>
    <i name="e_fr_energy">     -5.72784595 </i>
    <i name="e_wo_entrp">     -5.72784595 </i>
    <i name="e_0_energy">     -5.72784595 </i>
   </energy>
  </scstep>
  <scstep>
   <time name="diag">    1.10    1.10</time>
   <time name="diis">    4.34    4.34</time>
   <time name="orth">    0.05    0.05</time>
   <time name="total">   16.17   16.17</time>
   <energy>
    <i name="e_fr_energy">    -12.28434446 </i>
    <i name="e_wo_entrp">    -12.28434446 </i>
    <i name="e_0_energy">    -12.28434446 </i>
   </energy>
  </scstep>
  <scstep>
   <time name="diag">    1.10    1.10</time>
   <time name="diis">    4.22    4.23</time>
   <time name="orth">    0.05    0.05</time>
   <time name="total">   16.07   16.10</time>
   <energy>
    <i name="e_fr_energy">     -2.87978315 </i>
    <i name="e_wo_entrp">     -2.87978315 </i>
    <i name="e_0_energy">     -2.87978315 </i>
   </energy>
  </scstep>
  <scstep>
   <time name="diag">    1.10    1.10</time>
   <time name="diis">    4.38    4.39</time>
   <time name="orth">    0.05    0.05</time>
