Co–organic framework                  
           1
    30.000000    0.000000    0.000000
     0.000000   30.000000    0.000000
     0.000000    0.000000   30.000000
   C    O 
   1   1
Direct configuration=     1
   0.47980337  0.47486042  0.60390684
   0.60883563  0.61941158  0.53965116
Direct configuration=     2
   0.47982426  0.47488490  0.60389665
   0.60881474  0.61938710  0.53966135
Direct configuration=     3
   0.47988695  0.47495836  0.60386610
   0.60875205  0.61931364  0.53969190
Direct configuration=     4
   0.48001231  0.47510527  0.60380498
   0.60862669  0.61916673  0.53975302
Direct configuration=     5
   0.48026304  0.47539908  0.60368275
   0.60837596  0.61887292  0.53987525
Direct configuration=     6
   0.48076449  0.47598672  0.60343829
   0.60787451  0.61828528  0.54011971
Direct configuration=     7
   0.48176739  0.47716199  0.60294937
   0.60687161  0.61711001  0.54060863
Direct configuration=     8
   0.48377321  0.47951253  0.60197154
   0.60486579  0.61475947  0.54158646
Direct configuration=     9
   0.48778483  0.48421361  0.60001586
   0.60085417  0.61005839  0.54354214
Direct configuration=    10
   0.49580807  0.49361577  0.59610452
   0.59283093  0.60065623  0.54745348
Direct configuration=    11
   0.51185456  0.51242010  0.58828182
   0.57678444  0.58185190  0.55527618
Direct configuration=    12
   0.54394753  0.55002874  0.57263644
   0.54469147  0.54424326  0.57092156
