Co–organic framework                  
           1
     5.183626    0.714111   -0.503829
    -1.814920    4.464098   -0.276918
    -2.760660    0.472440    6.025712
   C    O 
   1   1
Direct configuration=     1
   0.47980337  0.47486042  0.60390684
   0.60883563  0.61941158  0.53965116
