Co–organic framework                  
           1
     9.813847    0.000000    0.000000
    -4.628217    8.653970    0.000000
    -4.470393    2.678746   11.576603
   C    O 
   1   1
Direct configuration=     1
   0.49767300  0.49480379  0.59510957
   0.59096600  0.59946821  0.54844843
Co–organic framework                  
           1
     9.717892   -0.077022    0.053206
    -4.650884    8.578274    0.032356
    -4.384945    2.756006   11.478495
   C    O 
   1   1
Direct configuration=     2
   0.50067163  0.49816855  0.59360878
   0.58796737  0.59610345  0.54994922
Co–organic framework                  
           1
     9.806670   -0.005761    0.003979
    -4.629912    8.648308    0.002420
    -4.464003    2.684525   11.569265
   C    O 
   1   1
Direct configuration=     3
   0.49782918  0.49497902  0.59503135
   0.59080982  0.59929298  0.54852665
Co–organic framework                  
           1
     9.805774   -0.006480    0.004476
    -4.630124    8.647602    0.002722
    -4.463205    2.685246   11.568349
   C    O 
   1   1
Direct configuration=     4
   0.49785723  0.49501049  0.59501732
   0.59078177  0.59926151  0.54854068
Co–organic framework                  
           1
     9.805449   -0.006741    0.004657
    -4.630201    8.647345    0.002832
    -4.462915    2.685508   11.568017
   C    O 
   1   1
Direct configuration=     5
   0.49786742  0.49502192  0.59501222
   0.59077158  0.59925008  0.54854578
Co–organic framework                  
           1
     9.781123   -0.002947    0.001980
    -4.615384    8.625328    0.001359
    -4.453956    2.673860   11.538847
   C    O 
   1   1
Direct configuration=     6
   0.49778344  0.49492822  0.59505367
   0.59085556  0.59934378  0.54850433
Co–organic framework                  
           1
     9.708147    0.008435   -0.006048
    -4.570932    8.559277   -0.003058
    -4.427078    2.638917   11.451337
   C    O 
   1   1
Direct configuration=     7
   0.49753107  0.49464663  0.59517825
   0.59110793  0.59962537  0.54837975
Co–organic framework                  
           1
     9.562195    0.031199   -0.022106
    -4.482028    8.427174   -0.011892
    -4.373323    2.569031   11.276317
   C    O 
   1   1
Direct configuration=     8
   0.49702357  0.49408037  0.59542874
   0.59161543  0.60019163  0.54812926
Co–organic framework                  
           1
     9.270290    0.076726   -0.054221
    -4.304221    8.162969   -0.029560
    -4.265812    2.429258   10.926276
   C    O 
   1   1
Direct configuration=     9
   0.49599744  0.49293539  0.59593512
   0.59264156  0.60133661  0.54762288
Co–organic framework                  
           1
     8.686481    0.167781   -0.118451
    -3.948607    7.634559   -0.064897
    -4.050790    2.149712   10.226196
   C    O 
   1   1
Direct configuration=    10
   0.49389907  0.49059389  0.59697023
   0.59473993  0.60367811  0.54658777
Co–organic framework                  
           1
     7.518863    0.349891   -0.246910
    -3.237378    6.577738   -0.135571
    -3.620747    1.590622    8.826034
   C    O 
   1   1
Direct configuration=    11
   0.48950489  0.48569006  0.59913595
   0.59913411  0.60858194  0.54442205
Co–organic framework                  
           1
     5.183626    0.714111   -0.503829
    -1.814920    4.464098   -0.276918
    -2.760660    0.472440    6.025712
   C    O 
   1   1
Direct configuration=    12
   0.47980337  0.47486042  0.60390684
   0.60883563  0.61941158  0.53965116
