   4   4   0   0
  0.6750000E+04  0.3000000E-08  0.3000000E-08  0.3000000E-08  0.5000000E-15
  1.000000000000000E-004
  CAR 
 Co–organic framework                  
      1.56169334    -32.28750977  301     -5.64536615      1.00000000
    -32.288  0.0000E+00  0.0000E+00  0.0000E+00  0.0000E+00
    -32.175  0.0000E+00  0.0000E+00  0.0000E+00  0.0000E+00
    -32.062  0.0000E+00  0.0000E+00  0.0000E+00  0.0000E+00
    -31.949  0.0000E+00  0.0000E+00  0.0000E+00  0.0000E+00
    -31.836  0.0000E+00  0.0000E+00  0.0000E+00  0.0000E+00
    -31.723  0.0000E+00  0.0000E+00  0.0000E+00  0.0000E+00
    -31.611  0.0000E+00  0.0000E+00  0.0000E+00  0.0000E+00
    -31.498  0.0000E+00  0.0000E+00  0.0000E+00  0.0000E+00
    -31.385  0.0000E+00  0.0000E+00  0.0000E+00  0.0000E+00
    -31.272  0.0000E+00  0.0000E+00  0.0000E+00  0.0000E+00
    -31.159  0.0000E+00  0.0000E+00  0.0000E+00  0.0000E+00
    -31.046  0.0000E+00  0.0000E+00  0.0000E+00  0.0000E+00
    -30.934  0.7836E-09  0.1123E-12  0.8841E-10  0.1267E-13
    -30.821  0.1873E-03  0.2222E-05  0.2114E-04  0.2507E-06
    -30.708  0.7586E-02  0.3422E-02  0.8771E-03  0.3864E-03
    -30.595  0.1089E-02  0.5422E-02  0.1000E-02  0.9981E-03
    -30.482  0.5983E-07  0.1640E-04  0.1000E-02  0.1000E-02
    -30.369  0.2027E-15  0.4881E-11  0.1000E-02  0.1000E-02
    -30.257  0.0000E+00  0.0000E+00  0.1000E-02  0.1000E-02
    -30.144  0.0000E+00  0.0000E+00  0.1000E-02  0.1000E-02
    -30.031  0.0000E+00  0.0000E+00  0.1000E-02  0.1000E-02
    -29.918  0.0000E+00  0.0000E+00  0.1000E-02  0.1000E-02
    -29.805  0.0000E+00  0.0000E+00  0.1000E-02  0.1000E-02
    -29.692  0.0000E+00  0.0000E+00  0.1000E-02  0.1000E-02
    -29.580  0.0000E+00  0.0000E+00  0.1000E-02  0.1000E-02
    -29.467  0.0000E+00  0.0000E+00  0.1000E-02  0.1000E-02
    -29.354  0.0000E+00  0.0000E+00  0.1000E-02  0.1000E-02
    -29.241  0.0000E+00  0.0000E+00  0.1000E-02  0.1000E-02
    -29.128  0.0000E+00  0.0000E+00  0.1000E-02  0.1000E-02
    -29.015  0.0000E+00  0.0000E+00  0.1000E-02  0.1000E-02
    -28.903  0.0000E+00  0.0000E+00  0.1000E-02  0.1000E-02
    -28.790  0.0000E+00  0.0000E+00  0.1000E-02  0.1000E-02
    -28.677  0.0000E+00  0.0000E+00  0.1000E-02  0.1000E-02
    -28.564  0.0000E+00  0.0000E+00  0.1000E-02  0.1000E-02
    -28.451  0.0000E+00  0.0000E+00  0.1000E-02  0.1000E-02
    -28.338  0.0000E+00  0.0000E+00  0.1000E-02  0.1000E-02
    -28.226  0.0000E+00  0.0000E+00  0.1000E-02  0.1000E-02
    -28.113  0.0000E+00  0.0000E+00  0.1000E-02  0.1000E-02
    -28.000  0.0000E+00  0.0000E+00  0.1000E-02  0.1000E-02
    -27.887  0.0000E+00  0.0000E+00  0.1000E-02  0.1000E-02
    -27.774  0.0000E+00  0.0000E+00  0.1000E-02  0.1000E-02
    -27.661  0.0000E+00  0.0000E+00  0.1000E-02  0.1000E-02
    -27.549  0.0000E+00  0.0000E+00  0.1000E-02  0.1000E-02
    -27.436  0.0000E+00  0.0000E+00  0.1000E-02  0.1000E-02
    -27.323  0.0000E+00  0.0000E+00  0.1000E-02  0.1000E-02
    -27.210  0.0000E+00  0.0000E+00  0.1000E-02  0.1000E-02
    -27.097  0.0000E+00  0.0000E+00  0.1000E-02  0.1000E-02
    -26.984  0.0000E+00  0.0000E+00  0.1000E-02  0.1000E-02
    -26.872  0.0000E+00  0.0000E+00  0.1000E-02  0.1000E-02
    -26.759  0.0000E+00  0.0000E+00  0.1000E-02  0.1000E-02
    -26.646  0.0000E+00  0.0000E+00  0.1000E-02  0.1000E-02
    -26.533  0.0000E+00  0.0000E+00  0.1000E-02  0.1000E-02
    -26.420  0.0000E+00  0.0000E+00  0.1000E-02  0.1000E-02
    -26.307  0.0000E+00  0.0000E+00  0.1000E-02  0.1000E-02
    -26.195  0.0000E+00  0.0000E+00  0.1000E-02  0.1000E-02
    -26.082  0.0000E+00  0.0000E+00  0.1000E-02  0.1000E-02
    -25.969  0.0000E+00  0.0000E+00  0.1000E-02  0.1000E-02
    -25.856  0.0000E+00  0.0000E+00  0.1000E-02  0.1000E-02
    -25.743  0.0000E+00  0.0000E+00  0.1000E-02  0.1000E-02
    -25.630  0.0000E+00  0.0000E+00  0.1000E-02  0.1000E-02
    -25.518  0.0000E+00  0.0000E+00  0.1000E-02  0.1000E-02
    -25.405  0.0000E+00  0.0000E+00  0.1000E-02  0.1000E-02
    -25.292  0.0000E+00  0.0000E+00  0.1000E-02  0.1000E-02
    -25.179  0.0000E+00  0.0000E+00  0.1000E-02  0.1000E-02
    -25.066  0.0000E+00  0.0000E+00  0.1000E-02  0.1000E-02
    -24.954  0.0000E+00  0.0000E+00  0.1000E-02  0.1000E-02
    -24.841  0.0000E+00  0.0000E+00  0.1000E-02  0.1000E-02
    -24.728  0.0000E+00  0.0000E+00  0.1000E-02  0.1000E-02
    -24.615  0.0000E+00  0.0000E+00  0.1000E-02  0.1000E-02
    -24.502  0.0000E+00  0.0000E+00  0.1000E-02  0.1000E-02
    -24.389  0.0000E+00  0.0000E+00  0.1000E-02  0.1000E-02
    -24.277  0.0000E+00  0.0000E+00  0.1000E-02  0.1000E-02
    -24.164  0.0000E+00  0.0000E+00  0.1000E-02  0.1000E-02
    -24.051  0.0000E+00  0.0000E+00  0.1000E-02  0.1000E-02
    -23.938  0.0000E+00  0.0000E+00  0.1000E-02  0.1000E-02
    -23.825  0.0000E+00  0.0000E+00  0.1000E-02  0.1000E-02
    -23.712  0.0000E+00  0.0000E+00  0.1000E-02  0.1000E-02
    -23.600  0.0000E+00  0.0000E+00  0.1000E-02  0.1000E-02
    -23.487  0.0000E+00  0.0000E+00  0.1000E-02  0.1000E-02
    -23.374  0.0000E+00  0.0000E+00  0.1000E-02  0.1000E-02
    -23.261  0.0000E+00  0.0000E+00  0.1000E-02  0.1000E-02
    -23.148  0.0000E+00  0.0000E+00  0.1000E-02  0.1000E-02
    -23.035  0.0000E+00  0.0000E+00  0.1000E-02  0.1000E-02
    -22.923  0.0000E+00  0.0000E+00  0.1000E-02  0.1000E-02
    -22.810  0.0000E+00  0.0000E+00  0.1000E-02  0.1000E-02
    -22.697  0.0000E+00  0.0000E+00  0.1000E-02  0.1000E-02
    -22.584  0.0000E+00  0.0000E+00  0.1000E-02  0.1000E-02
    -22.471  0.0000E+00  0.0000E+00  0.1000E-02  0.1000E-02
    -22.358  0.0000E+00  0.0000E+00  0.1000E-02  0.1000E-02
    -22.246  0.0000E+00  0.0000E+00  0.1000E-02  0.1000E-02
    -22.133  0.0000E+00  0.0000E+00  0.1000E-02  0.1000E-02
    -22.020  0.0000E+00  0.0000E+00  0.1000E-02  0.1000E-02
    -21.907  0.0000E+00  0.0000E+00  0.1000E-02  0.1000E-02
    -21.794  0.0000E+00  0.0000E+00  0.1000E-02  0.1000E-02
    -21.681  0.0000E+00  0.0000E+00  0.1000E-02  0.1000E-02
    -21.569  0.0000E+00  0.0000E+00  0.1000E-02  0.1000E-02
    -21.456  0.4913E-09  0.0000E+00  0.1000E-02  0.1000E-02
    -21.343  0.1520E-03  0.0000E+00  0.1017E-02  0.1000E-02
    -21.230  0.7459E-02  0.0000E+00  0.1859E-02  0.1000E-02
    -21.117  0.1252E-02  0.4411E-13  0.2000E-02  0.1000E-02
    -21.004  0.8817E-07  0.1327E-05  0.2000E-02  0.1000E-02
    -20.892  0.3916E-15  0.2973E-02  0.2000E-02  0.1336E-02
    -20.779  0.0000E+00  0.5863E-02  0.2000E-02  0.1997E-02
    -20.666  0.0000E+00  0.2508E-04  0.2000E-02  0.2000E-02
    -20.553  0.0000E+00  0.1130E-10  0.2000E-02  0.2000E-02
    -20.440  0.0000E+00  0.0000E+00  0.2000E-02  0.2000E-02
    -20.327  0.0000E+00  0.0000E+00  0.2000E-02  0.2000E-02
    -20.215  0.0000E+00  0.0000E+00  0.2000E-02  0.2000E-02
    -20.102  0.0000E+00  0.0000E+00  0.2000E-02  0.2000E-02
    -19.989  0.0000E+00  0.0000E+00  0.2000E-02  0.2000E-02
    -19.876  0.0000E+00  0.0000E+00  0.2000E-02  0.2000E-02
    -19.763  0.0000E+00  0.0000E+00  0.2000E-02  0.2000E-02
    -19.650  0.0000E+00  0.0000E+00  0.2000E-02  0.2000E-02
    -19.538  0.0000E+00  0.0000E+00  0.2000E-02  0.2000E-02
    -19.425  0.0000E+00  0.0000E+00  0.2000E-02  0.2000E-02
    -19.312  0.0000E+00  0.0000E+00  0.2000E-02  0.2000E-02
    -19.199  0.0000E+00  0.0000E+00  0.2000E-02  0.2000E-02
    -19.086  0.0000E+00  0.0000E+00  0.2000E-02  0.2000E-02
    -18.973  0.0000E+00  0.0000E+00  0.2000E-02  0.2000E-02
    -18.861  0.0000E+00  0.0000E+00  0.2000E-02  0.2000E-02
    -18.748  0.0000E+00  0.0000E+00  0.2000E-02  0.2000E-02
    -18.635  0.0000E+00  0.0000E+00  0.2000E-02  0.2000E-02
    -18.522  0.0000E+00  0.0000E+00  0.2000E-02  0.2000E-02
    -18.409  0.0000E+00  0.0000E+00  0.2000E-02  0.2000E-02
    -18.297  0.0000E+00  0.0000E+00  0.2000E-02  0.2000E-02
    -18.184  0.0000E+00  0.0000E+00  0.2000E-02  0.2000E-02
    -18.071  0.0000E+00  0.0000E+00  0.2000E-02  0.2000E-02
    -17.958  0.0000E+00  0.0000E+00  0.2000E-02  0.2000E-02
    -17.845  0.0000E+00  0.0000E+00  0.2000E-02  0.2000E-02
    -17.732  0.0000E+00  0.0000E+00  0.2000E-02  0.2000E-02
    -17.620  0.0000E+00  0.0000E+00  0.2000E-02  0.2000E-02
    -17.507  0.0000E+00  0.0000E+00  0.2000E-02  0.2000E-02
    -17.394  0.0000E+00  0.0000E+00  0.2000E-02  0.2000E-02
    -17.281  0.0000E+00  0.0000E+00  0.2000E-02  0.2000E-02
    -17.168  0.0000E+00  0.0000E+00  0.2000E-02  0.2000E-02
    -17.055  0.0000E+00  0.0000E+00  0.2000E-02  0.2000E-02
    -16.943  0.0000E+00  0.0000E+00  0.2000E-02  0.2000E-02
    -16.830  0.0000E+00  0.0000E+00  0.2000E-02  0.2000E-02
    -16.717  0.0000E+00  0.0000E+00  0.2000E-02  0.2000E-02
    -16.604  0.0000E+00  0.0000E+00  0.2000E-02  0.2000E-02
    -16.491  0.0000E+00  0.0000E+00  0.2000E-02  0.2000E-02
    -16.378  0.0000E+00  0.0000E+00  0.2000E-02  0.2000E-02
    -16.266  0.0000E+00  0.0000E+00  0.2000E-02  0.2000E-02
    -16.153  0.0000E+00  0.0000E+00  0.2000E-02  0.2000E-02
    -16.040  0.0000E+00  0.0000E+00  0.2000E-02  0.2000E-02
    -15.927  0.0000E+00  0.0000E+00  0.2000E-02  0.2000E-02
    -15.814  0.0000E+00  0.0000E+00  0.2000E-02  0.2000E-02
    -15.701  0.0000E+00  0.0000E+00  0.2000E-02  0.2000E-02
    -15.589  0.0000E+00  0.0000E+00  0.2000E-02  0.2000E-02
    -15.476  0.0000E+00  0.0000E+00  0.2000E-02  0.2000E-02
    -15.363  0.0000E+00  0.0000E+00  0.2000E-02  0.2000E-02
    -15.250  0.0000E+00  0.0000E+00  0.2000E-02  0.2000E-02
    -15.137  0.0000E+00  0.0000E+00  0.2000E-02  0.2000E-02
    -15.024  0.0000E+00  0.0000E+00  0.2000E-02  0.2000E-02
    -14.912  0.0000E+00  0.0000E+00  0.2000E-02  0.2000E-02
    -14.799  0.0000E+00  0.0000E+00  0.2000E-02  0.2000E-02
    -14.686  0.0000E+00  0.0000E+00  0.2000E-02  0.2000E-02
    -14.573  0.0000E+00  0.0000E+00  0.2000E-02  0.2000E-02
    -14.460  0.0000E+00  0.0000E+00  0.2000E-02  0.2000E-02
    -14.347  0.0000E+00  0.0000E+00  0.2000E-02  0.2000E-02
    -14.235  0.0000E+00  0.0000E+00  0.2000E-02  0.2000E-02
    -14.122  0.8511E-16  0.0000E+00  0.2000E-02  0.2000E-02
    -14.009  0.3559E-07  0.1768E-14  0.2000E-02  0.2000E-02
    -13.896  0.8996E-03  0.2132E-06  0.2102E-02  0.2000E-02
    -13.783  0.7719E-02  0.1695E-02  0.2972E-02  0.2191E-02
    -13.670  0.2440E-03  0.7077E-02  0.3000E-02  0.2990E-02
    -13.558  0.4784E-03  0.9059E-04  0.3054E-02  0.3000E-02
    -13.445  0.7883E-02  0.1316E-07  0.3943E-02  0.3000E-02
    -13.332  0.5017E-03  0.6105E-03  0.4000E-02  0.3069E-02
    -13.219  0.7955E-08  0.7863E-02  0.4000E-02  0.3956E-02
    -13.106  0.3007E-14  0.3890E-03  0.4000E-02  0.4000E-02
    -12.993  0.2894E-06  0.4278E-08  0.4000E-02  0.4000E-02
    -12.881  0.1874E-02  0.1968E-17  0.4211E-02  0.4000E-02
    -12.768  0.6914E-02  0.1338E-15  0.4992E-02  0.4000E-02
    -12.655  0.7468E-04  0.4659E-07  0.5000E-02  0.4000E-02
    -12.542  0.1058E-09  0.9943E-03  0.5000E-02  0.4112E-02
    -12.429  0.0000E+00  0.7655E-02  0.5000E-02  0.4976E-02
    -12.316  0.0000E+00  0.2132E-03  0.5000E-02  0.5000E-02
    -12.204  0.0000E+00  0.1050E-08  0.5000E-02  0.5000E-02
    -12.091  0.0000E+00  0.0000E+00  0.5000E-02  0.5000E-02
    -11.978  0.0000E+00  0.0000E+00  0.5000E-02  0.5000E-02
    -11.865  0.0000E+00  0.0000E+00  0.5000E-02  0.5000E-02
    -11.752  0.0000E+00  0.0000E+00  0.5000E-02  0.5000E-02
    -11.639  0.0000E+00  0.0000E+00  0.5000E-02  0.5000E-02
    -11.527  0.0000E+00  0.0000E+00  0.5000E-02  0.5000E-02
    -11.414  0.0000E+00  0.0000E+00  0.5000E-02  0.5000E-02
    -11.301  0.0000E+00  0.0000E+00  0.5000E-02  0.5000E-02
    -11.188  0.0000E+00  0.0000E+00  0.5000E-02  0.5000E-02
    -11.075  0.0000E+00  0.0000E+00  0.5000E-02  0.5000E-02
    -10.963  0.0000E+00  0.0000E+00  0.5000E-02  0.5000E-02
    -10.850  0.0000E+00  0.0000E+00  0.5000E-02  0.5000E-02
    -10.737  0.0000E+00  0.0000E+00  0.5000E-02  0.5000E-02
    -10.624  0.0000E+00  0.0000E+00  0.5000E-02  0.5000E-02
    -10.511  0.0000E+00  0.0000E+00  0.5000E-02  0.5000E-02
    -10.398  0.0000E+00  0.0000E+00  0.5000E-02  0.5000E-02
    -10.286  0.0000E+00  0.0000E+00  0.5000E-02  0.5000E-02
    -10.173  0.0000E+00  0.0000E+00  0.5000E-02  0.5000E-02
    -10.060  0.0000E+00  0.0000E+00  0.5000E-02  0.5000E-02
     -9.947  0.1283E-14  0.0000E+00  0.5000E-02  0.5000E-02
     -9.834  0.1769E-06  0.0000E+00  0.5000E-02  0.5000E-02
     -9.721  0.1592E-02  0.0000E+00  0.5180E-02  0.5000E-02
     -9.609  0.7169E-02  0.4443E-12  0.5989E-02  0.5000E-02
     -9.496  0.1016E-03  0.4679E-05  0.6000E-02  0.5001E-02
     -9.383  0.2039E-09  0.4130E-02  0.6000E-02  0.5467E-02
     -9.270  0.0000E+00  0.4719E-02  0.6000E-02  0.5999E-02
     -9.157  0.0000E+00  0.8363E-05  0.6000E-02  0.6000E-02
     -9.044  0.0000E+00  0.1329E-11  0.6000E-02  0.6000E-02
     -8.932  0.0000E+00  0.0000E+00  0.6000E-02  0.6000E-02
     -8.819  0.0000E+00  0.0000E+00  0.6000E-02  0.6000E-02
     -8.706  0.0000E+00  0.0000E+00  0.6000E-02  0.6000E-02
     -8.593  0.0000E+00  0.0000E+00  0.6000E-02  0.6000E-02
     -8.480  0.0000E+00  0.0000E+00  0.6000E-02  0.6000E-02
     -8.367  0.0000E+00  0.0000E+00  0.6000E-02  0.6000E-02
     -8.255  0.0000E+00  0.0000E+00  0.6000E-02  0.6000E-02
     -8.142  0.0000E+00  0.0000E+00  0.6000E-02  0.6000E-02
     -8.029  0.0000E+00  0.0000E+00  0.6000E-02  0.6000E-02
     -7.916  0.0000E+00  0.0000E+00  0.6000E-02  0.6000E-02
     -7.803  0.0000E+00  0.0000E+00  0.6000E-02  0.6000E-02
     -7.690  0.0000E+00  0.0000E+00  0.6000E-02  0.6000E-02
     -7.578  0.0000E+00  0.0000E+00  0.6000E-02  0.6000E-02
     -7.465  0.0000E+00  0.0000E+00  0.6000E-02  0.6000E-02
     -7.352  0.0000E+00  0.0000E+00  0.6000E-02  0.6000E-02
     -7.239  0.0000E+00  0.0000E+00  0.6000E-02  0.6000E-02
     -7.126  0.0000E+00  0.0000E+00  0.6000E-02  0.6000E-02
     -7.013  0.0000E+00  0.0000E+00  0.6000E-02  0.6000E-02
     -6.901  0.0000E+00  0.0000E+00  0.6000E-02  0.6000E-02
     -6.788  0.3245E-10  0.0000E+00  0.6000E-02  0.6000E-02
     -6.675  0.4228E-04  0.0000E+00  0.6005E-02  0.6000E-02
     -6.562  0.6388E-02  0.0000E+00  0.6726E-02  0.6000E-02
     -6.449  0.2432E-02  0.4253E-13  0.7000E-02  0.6000E-02
     -6.336  0.6658E-06  0.1300E-05  0.7000E-02  0.6000E-02
     -6.224  0.1290E-13  0.2956E-02  0.7000E-02  0.6334E-02
     -6.111  0.1185E-11  0.5880E-02  0.7000E-02  0.6997E-02
     -5.998  0.7871E-05  0.2549E-04  0.7001E-02  0.7000E-02
     -5.885  0.4657E-02  0.1167E-10  0.7526E-02  0.7000E-02
     -5.772  0.4193E-02  0.0000E+00  0.7999E-02  0.7000E-02
     -5.659  0.4983E-05  0.0000E+00  0.8000E-02  0.7000E-02
     -5.547  0.4999E-12  0.0000E+00  0.8000E-02  0.7000E-02
     -5.434  0.0000E+00  0.0000E+00  0.8000E-02  0.7000E-02
     -5.321  0.0000E+00  0.0000E+00  0.8000E-02  0.7000E-02
     -5.208  0.0000E+00  0.0000E+00  0.8000E-02  0.7000E-02
     -5.095  0.0000E+00  0.0000E+00  0.8000E-02  0.7000E-02
     -4.982  0.0000E+00  0.0000E+00  0.8000E-02  0.7000E-02
     -4.870  0.0000E+00  0.0000E+00  0.8000E-02  0.7000E-02
     -4.757  0.0000E+00  0.0000E+00  0.8000E-02  0.7000E-02
     -4.644  0.0000E+00  0.0000E+00  0.8000E-02  0.7000E-02
     -4.531  0.0000E+00  0.0000E+00  0.8000E-02  0.7000E-02
     -4.418  0.0000E+00  0.0000E+00  0.8000E-02  0.7000E-02
     -4.306  0.0000E+00  0.8736E-09  0.8000E-02  0.7000E-02
     -4.193  0.0000E+00  0.1966E-03  0.8000E-02  0.7022E-02
     -4.080  0.0000E+00  0.7613E-02  0.8000E-02  0.7881E-02
     -3.967  0.0000E+00  0.1053E-02  0.8000E-02  0.8000E-02
     -3.854  0.0000E+00  0.5456E-07  0.8000E-02  0.8000E-02
     -3.741  0.0000E+00  0.1742E-15  0.8000E-02  0.8000E-02
     -3.629  0.0000E+00  0.0000E+00  0.8000E-02  0.8000E-02
     -3.516  0.0000E+00  0.0000E+00  0.8000E-02  0.8000E-02
     -3.403  0.0000E+00  0.0000E+00  0.8000E-02  0.8000E-02
     -3.290  0.1256E-10  0.0000E+00  0.8000E-02  0.8000E-02
     -3.177  0.2644E-04  0.3117E-11  0.8003E-02  0.8000E-02
     -3.064  0.5918E-02  0.1303E-04  0.8671E-02  0.8001E-02
     -2.952  0.2918E-02  0.5181E-02  0.9000E-02  0.8586E-02
     -2.839  0.2065E-02  0.3666E-02  0.9233E-02  0.9000E-02
     -2.726  0.6737E-02  0.2893E-05  0.9993E-02  0.9000E-02
     -2.613  0.6121E-04  0.1822E-12  0.1000E-01  0.9000E-02
     -2.500  0.6969E-10  0.0000E+00  0.1000E-01  0.9000E-02
     -2.387  0.0000E+00  0.0000E+00  0.1000E-01  0.9000E-02
     -2.275  0.0000E+00  0.0000E+00  0.1000E-01  0.9000E-02
     -2.162  0.0000E+00  0.0000E+00  0.1000E-01  0.9000E-02
     -2.049  0.0000E+00  0.1968E-16  0.1000E-01  0.9000E-02
     -1.936  0.0000E+00  0.1467E-07  0.1000E-01  0.9000E-02
     -1.823  0.0000E+00  0.6403E-03  0.1000E-01  0.9072E-02
     -1.710  0.0000E+00  0.7854E-02  0.1000E-01  0.9958E-02
     -1.598  0.0000E+00  0.3690E-03  0.1000E-01  0.1000E-01
     -1.485  0.0000E+00  0.3769E-08  0.1000E-01  0.1000E-01
     -1.372  0.0000E+00  0.1968E-17  0.1000E-01  0.1000E-01
     -1.259  0.0000E+00  0.0000E+00  0.1000E-01  0.1000E-01
     -1.146  0.0000E+00  0.0000E+00  0.1000E-01  0.1000E-01
     -1.033  0.0000E+00  0.0000E+00  0.1000E-01  0.1000E-01
     -0.921  0.0000E+00  0.0000E+00  0.1000E-01  0.1000E-01
     -0.808  0.4920E-17  0.0000E+00  0.1000E-01  0.1000E-01
     -0.695  0.6095E-08  0.0000E+00  0.1000E-01  0.1000E-01
     -0.582  0.4502E-03  0.8581E-09  0.1005E-01  0.1000E-01
     -0.469  0.7880E-02  0.1950E-03  0.1094E-01  0.1002E-01
     -0.356  0.5324E-03  0.7608E-02  0.1100E-01  0.1088E-01
     -0.244  0.9218E-08  0.1059E-02  0.1100E-01  0.1100E-01
     -0.131  0.8235E-07  0.1152E-06  0.1100E-01  0.1100E-01
     -0.018  0.1222E-02  0.1089E-02  0.1114E-01  0.1112E-01
      0.095  0.7483E-02  0.7586E-02  0.1198E-01  0.1198E-01
      0.208  0.1578E-03  0.1873E-03  0.1200E-01  0.1200E-01
      0.321  0.5340E-09  0.7836E-09  0.1200E-01  0.1200E-01
      0.433  0.0000E+00  0.0000E+00  0.1200E-01  0.1200E-01
      0.546  0.0000E+00  0.0000E+00  0.1200E-01  0.1200E-01
      0.659  0.0000E+00  0.0000E+00  0.1200E-01  0.1200E-01
      0.772  0.0000E+00  0.0000E+00  0.1200E-01  0.1200E-01
      0.885  0.0000E+00  0.0000E+00  0.1200E-01  0.1200E-01
      0.998  0.0000E+00  0.0000E+00  0.1200E-01  0.1200E-01
      1.110  0.0000E+00  0.0000E+00  0.1200E-01  0.1200E-01
      1.223  0.0000E+00  0.0000E+00  0.1200E-01  0.1200E-01
      1.336  0.0000E+00  0.0000E+00  0.1200E-01  0.1200E-01
      1.449  0.0000E+00  0.0000E+00  0.1200E-01  0.1200E-01
      1.562  0.0000E+00  0.0000E+00  0.1200E-01  0.1200E-01
