    4    4 1000    2
  0.9510263E+02  0.6801647E-09  0.8145068E-09  0.6912798E-09  0.5000000E-15
  1.000000000000000E-004
  CAR 
 Co–organic framework                  
     15      1     12
