    4    4 1000    2
  0.6750000E+04  0.3000000E-08  0.3000000E-08  0.3000000E-08  0.5000000E-15
  1.000000000000000E-004
  CAR 
 Co–organic framework                  
     15      1     12
 
  0.0000000E+00  0.0000000E+00  0.0000000E+00  0.1000000E+01
    1      -30.748910    -30.697673   1.000000   1.000000
    2      -21.268100    -20.876603   1.000000   1.000000
    3      -13.851102    -13.752405   1.000000   1.000000
    4      -13.500785    -13.279485   1.000000   1.000000
    5      -12.852300    -12.499185   1.000000   1.000000
    6       -9.688969     -9.379916   1.000000   1.000000
    7       -6.583304     -6.208430   1.000000   1.000000
    8       -5.887466     -4.121583   1.000000   0.000000
    9       -3.079982     -2.959218   0.000000   0.000000
   10       -2.812921     -1.771634   0.000000   0.000000
   11       -0.524206     -0.398053   0.000000   0.000000
   12        0.020598      0.023093   0.000000   0.000000
