    4    4 1000    2
  0.2500000E+03  0.1000000E-08  0.1000000E-08  0.1000000E-08  0.5000000E-15
  1.000000000000000E-004
  CAR 
 Co–organic framework                  
     15      1     12
