 running on   24 total cores
 distrk:  each k-point on   24 cores,    1 groups
 distr:  one band on    4 cores,    6 groups
 using from now: INCAR     
 vasp.5.4.4.18Apr17-6-g9f103f2a35 (build May 21 2019 18:55:53) complex          
  
 POSCAR found type information on POSCAR  C  O  Li
 POSCAR found :  3 types and       4 ions
 WARNING: type information on POSCAR and POTCAR are incompatible
 POTCAR overwrites the type information in POSCAR
 typ   1 type information:  C  O 
 WARNING: type information on POSCAR and POTCAR are incompatible
 POTCAR overwrites the type information in POSCAR
 typ   2 type information:  O  C 
 WARNING: type information on POSCAR and POTCAR are incompatible
 POTCAR overwrites the type information in POSCAR
 typ   3 type information:  Li H 

 ----------------------------------------------------------------------------- 
|                                                                             |
|  ADVICE TO THIS USER RUNNING 'VASP/VAMP'   (HEAR YOUR MASTER'S VOICE ...):  |
|                                                                             |
|      You have a (more or less) 'small supercell' and for smaller cells      |
|      it is recommended  to use the reciprocal-space projection scheme!      |
|      The real space optimization is not  efficient for small cells and it   |
|      is also less accurate ...                                              |
|      Therefore set LREAL=.FALSE. in the  INCAR file                         |
|                                                                             |
 ----------------------------------------------------------------------------- 

 LDA part: xc-table for Pade appr. of Perdew
 POSCAR found type information on POSCAR  C  O  Li
 POSCAR found :  3 types and       4 ions
 POSCAR, INCAR and KPOINTS ok, starting setup
 FFT: planning ...
 WAVECAR not read
 WARNING: random wavefunctions but no delay for mixing, default for NELMDL
 entering main loop
       N       E                     dE             d eps       ncg     rms          rms(c)
DAV:   1     0.762489025306E+02    0.76249E+02   -0.20017E+03    96   0.429E+02
DAV:   2     0.436651389653E+02   -0.32584E+02   -0.32313E+02    60   0.773E+01
DAV:   3     0.118991107776E+02   -0.31766E+02   -0.31556E+02    96   0.600E+01
DAV:   4    -0.596162372002E+01   -0.17861E+02   -0.16644E+02    72   0.426E+01
DAV:   5    -0.868793524144E+01   -0.27263E+01   -0.27049E+01    72   0.164E+01    0.157E+01
RMM:   6    -0.403611292180E+02   -0.31673E+02   -0.21391E+01    60   0.284E+01    0.376E+01
RMM:   7    -0.332229882027E+01    0.37039E+02   -0.10699E+01    51   0.275E+01    0.118E+01
RMM:   8    -0.319076045509E+01    0.13154E+00   -0.14896E+00    59   0.838E+00    0.113E+01
RMM:   9    -0.316593770508E+01    0.24823E-01   -0.68627E-01    65   0.191E+00    0.132E+01
RMM:  10    -0.266763563494E+01    0.49830E+00   -0.50987E-01    61   0.183E+00    0.145E+01
RMM:  11    -0.311424457054E+01   -0.44661E+00   -0.20711E-01    60   0.176E+00    0.118E+01
RMM:  12    -0.320656780089E+01   -0.92323E-01   -0.13398E-01    65   0.993E-01    0.122E+01
RMM:  13    -0.319958917723E+01    0.69786E-02   -0.65463E-02    68   0.623E-01    0.124E+01
RMM:  14    -0.316925329600E+01    0.30336E-01   -0.35131E-02    68   0.472E-01    0.120E+01
RMM:  15    -0.320268747545E+01   -0.33434E-01   -0.15980E-02    64   0.600E-01    0.121E+01
RMM:  16    -0.320180340005E+01    0.88408E-03   -0.17588E-02    68   0.274E-01    0.122E+01
RMM:  17    -0.320202354885E+01   -0.22015E-03   -0.59876E-03    67   0.239E-01    0.123E+01
RMM:  18    -0.315839725832E+01    0.43626E-01   -0.36653E-03    56   0.463E-01    0.124E+01
RMM:  19    -0.316963266620E+01   -0.11235E-01   -0.32674E-03    60   0.416E-01    0.123E+01
RMM:  20    -0.319382172966E+01   -0.24189E-01   -0.22543E-03    52   0.583E-01    0.122E+01
RMM:  21    -0.316459213550E+01    0.29230E-01   -0.43194E-02    56   0.114E+00    0.115E+01
RMM:  22    -0.320280056218E+01   -0.38208E-01   -0.88224E-02    57   0.120E+00    0.125E+01
RMM:  23    -0.316478532452E+01    0.38015E-01   -0.29479E-02    56   0.104E+00    0.117E+01
RMM:  24    -0.300612698123E+01    0.15866E+00   -0.97473E-02    51   0.233E+00    0.977E+00
RMM:  25    -0.296294798024E+01    0.43179E-01   -0.30393E-02    53   0.127E+00    0.961E+00
RMM:  26    -0.296232164666E+01    0.62633E-03   -0.37788E-02    64   0.771E-01    0.965E+00
RMM:  27    -0.293451280107E+01    0.27809E-01   -0.23264E-02    68   0.522E-01    0.965E+00
RMM:  28    -0.299394415204E+01   -0.59431E-01   -0.27523E-02    61   0.921E-01    0.970E+00
RMM:  29    -0.296334354786E+01    0.30601E-01   -0.46132E-02    51   0.148E+00    0.975E+00
RMM:  30    -0.246937060188E+01    0.49397E+00   -0.59627E-01    51   0.555E+00    0.205E+01
RMM:  31    -0.249540674118E+01   -0.26036E-01   -0.21814E-01    59   0.224E+00    0.208E+01
RMM:  32    -0.280857042295E+01   -0.31316E+00   -0.13298E-01    55   0.247E+00    0.197E+01
RMM:  33    -0.355817871297E+01   -0.74961E+00   -0.13055E-01    59   0.221E+00    0.229E+01
RMM:  34    -0.357750078996E+01   -0.19322E-01   -0.60962E-02    60   0.132E+00    0.229E+01
RMM:  35    -0.322801493120E+01    0.34949E+00   -0.78394E-01    49   0.648E+00    0.175E+01
RMM:  36    -0.272680528557E+01    0.50121E+00   -0.16282E-01    52   0.351E+00    0.122E+01
RMM:  37    -0.278775135523E+01   -0.60946E-01   -0.38649E-02    53   0.174E+00    0.133E+01
RMM:  38    -0.276377312560E+01    0.23978E-01   -0.18207E-02    62   0.825E-01    0.135E+01
RMM:  39    -0.296116231330E+01   -0.19739E+00   -0.16155E-02    58   0.742E-01    0.142E+01
RMM:  40    -0.281428952817E+01    0.14687E+00   -0.58298E-02    49   0.173E+00    0.122E+01
RMM:  41    -0.283730652714E+01   -0.23017E-01   -0.30590E-03    49   0.709E-01    0.124E+01
RMM:  42    -0.300637205340E+01   -0.16907E+00   -0.31393E-02    51   0.145E+00    0.148E+01
RMM:  43    -0.291026569535E+01    0.96106E-01   -0.67865E-02    50   0.235E+00    0.148E+01
RMM:  44    -0.290949390374E+01    0.77179E-03   -0.18298E-02    53   0.122E+00    0.148E+01
RMM:  45    -0.298102397491E+01   -0.71530E-01   -0.19147E-02    56   0.977E-01    0.145E+01
RMM:  46    -0.240753530632E+01    0.57349E+00   -0.43078E-01    53   0.449E+00    0.134E+01
RMM:  47    -0.244359114270E+01   -0.36056E-01   -0.16577E-01    64   0.137E+00    0.131E+01
RMM:  48    -0.267817968193E+01   -0.23459E+00   -0.10485E-01    52   0.295E+00    0.142E+01
RMM:  49    -0.265276889268E+01    0.25411E-01   -0.49601E-02    54   0.207E+00    0.144E+01
RMM:  50    -0.234833110325E+01    0.30444E+00   -0.47306E-02    50   0.203E+00    0.139E+01
RMM:  51    -0.227306184509E+01    0.75269E-01   -0.14456E-01    53   0.341E+00    0.144E+01
RMM:  52    -0.309770581354E+01   -0.82464E+00   -0.13263E-01    51   0.298E+00    0.131E+01
RMM:  53    -0.346894211770E+01   -0.37124E+00   -0.37178E-02    49   0.194E+00    0.130E+01
RMM:  54    -0.372798593225E+01   -0.25904E+00   -0.54864E-02    51   0.173E+00    0.129E+01
RMM:  55    -0.362847673370E+01    0.99509E-01   -0.70348E-02    52   0.177E+00    0.127E+01
RMM:  56    -0.329019822503E+01    0.33828E+00   -0.74081E-02    56   0.166E+00    0.125E+01
RMM:  57    -0.339715506201E+01   -0.10696E+00   -0.14906E-02    51   0.980E-01    0.124E+01
RMM:  58    -0.331348052067E+01    0.83675E-01   -0.24219E-02    49   0.130E+00    0.124E+01
RMM:  59    -0.315896243965E+01    0.15452E+00   -0.25976E-02    49   0.142E+00    0.121E+01
RMM:  60    -0.304214225224E+01    0.11682E+00   -0.65196E-03    55   0.705E-01    0.120E+01
RMM:  61    -0.282219161082E+01    0.21995E+00   -0.46901E-02    53   0.184E+00    0.125E+01
RMM:  62    -0.266771242244E+01    0.15448E+00   -0.24600E-02    53   0.140E+00    0.864E+00
RMM:  63    -0.265015412466E+01    0.17558E-01   -0.67806E-03    50   0.116E+00    0.847E+00
RMM:  64    -0.258473834528E+01    0.65416E-01   -0.52881E-03    48   0.772E-01    0.821E+00
RMM:  65    -0.263321235856E+01   -0.48474E-01   -0.17441E-02    50   0.100E+00    0.844E+00
RMM:  66    -0.260219146917E+01    0.31021E-01   -0.13057E-01    48   0.306E+00    0.131E+01
RMM:  67    -0.314875914731E+01   -0.54657E+00   -0.51648E-02    50   0.220E+00    0.134E+01
RMM:  68    -0.319790600529E+01   -0.49147E-01   -0.14815E-02    56   0.101E+00    0.135E+01
RMM:  69    -0.368588910449E+01   -0.48798E+00   -0.74300E-02    53   0.220E+00    0.137E+01
RMM:  70    -0.372716419801E+01   -0.41275E-01   -0.18536E-01    55   0.261E+00    0.138E+01
RMM:  71    -0.366839371377E+01    0.58770E-01   -0.22756E-02    48   0.131E+00    0.136E+01
RMM:  72    -0.404864327237E+01   -0.38025E+00   -0.13697E-02    52   0.802E-01    0.138E+01
RMM:  73    -0.417859024935E+01   -0.12995E+00   -0.75661E-03    52   0.663E-01    0.139E+01
RMM:  74    -0.416586254439E+01    0.12728E-01   -0.32634E-03    49   0.499E-01    0.144E+01
RMM:  75    -0.453363579897E+01   -0.36777E+00   -0.14910E-02    56   0.911E-01    0.145E+01
RMM:  76    -0.436987454995E+01    0.16376E+00   -0.76689E-01    49   0.698E+00    0.152E+01
RMM:  77    -0.485778036209E+01   -0.48791E+00   -0.20198E-01    52   0.359E+00    0.154E+01
RMM:  78    -0.572568477480E+01   -0.86790E+00   -0.27114E-01    48   0.376E+00    0.177E+01
RMM:  79    -0.523901790836E+01    0.48667E+00   -0.46436E-02    52   0.183E+00    0.150E+01
RMM:  80    -0.548824974658E+01   -0.24923E+00   -0.20831E-02    50   0.129E+00    0.145E+01
RMM:  81    -0.447308340044E+01    0.10152E+01   -0.68424E-01    50   0.603E+00    0.157E+01
RMM:  82    -0.404164371628E+01    0.43144E+00   -0.34915E-02    49   0.249E+00    0.146E+01
RMM:  83    -0.418400683915E+01   -0.14236E+00   -0.28360E-02    55   0.911E-01    0.157E+01
RMM:  84    -0.394800226049E+01    0.23600E+00   -0.16573E-01    50   0.327E+00    0.147E+01
RMM:  85    -0.385298833344E+01    0.95014E-01   -0.10041E-01    52   0.256E+00    0.142E+01
RMM:  86    -0.768011813313E+01   -0.38271E+01   -0.19336E+00    48   0.103E+01    0.304E+01
RMM:  87    -0.298745175096E+01    0.46927E+01   -0.46887E-01    51   0.505E+00    0.135E+01
RMM:  88    -0.300404992157E+01   -0.16598E-01   -0.46687E-02    51   0.251E+00    0.127E+01
RMM:  89    -0.292537499647E+01    0.78675E-01   -0.26177E-02    55   0.983E-01    0.120E+01
RMM:  90    -0.292346553451E+01    0.19095E-02   -0.72473E-03    50   0.770E-01    0.121E+01
RMM:  91    -0.321744554081E+01   -0.29398E+00   -0.25697E-01    52   0.368E+00    0.129E+01
RMM:  92    -0.353667700041E+01   -0.31923E+00   -0.23797E-01    49   0.393E+00    0.120E+01
RMM:  93    -0.356065070677E+01   -0.23974E-01   -0.64493E-02    53   0.221E+00    0.140E+01
RMM:  94    -0.310006891965E+01    0.46058E+00   -0.12011E-01    51   0.285E+00    0.126E+01
RMM:  95    -0.299639173054E+01    0.10368E+00   -0.86444E-02    48   0.277E+00    0.140E+01
RMM:  96    -0.291169600602E+01    0.84696E-01   -0.43367E-02    50   0.171E+00    0.220E+01
RMM:  97    -0.337261837629E+01   -0.46092E+00   -0.39176E-02    48   0.214E+00    0.206E+01
RMM:  98    -0.333520188420E+01    0.37416E-01   -0.36017E-03    56   0.465E-01    0.204E+01
RMM:  99    -0.332510759209E+01    0.10094E-01   -0.43729E-03    55   0.321E-01    0.207E+01
RMM: 100    -0.328927806619E+01    0.35830E-01   -0.10971E-02    49   0.810E-01
   1 F= -.32938051E+01 E0= -.32772660E+01  d E =-.329381E+01  mag=     0.3534
 curvature:   0.00 expect dE= 0.000E+00 dE for cont linesearch  0.000E+00
 trial: gam= 0.00000 g(F)=  0.410E-03 g(S)=  0.000E+00 ort = 0.000E+00 (trialstep = 0.100E+01)
 search vector abs. value=  0.410E-03
 bond charge predicted
       N       E                     dE             d eps       ncg     rms          rms(c)
DAV:   1    -0.293288697520E+01    0.39222E+00   -0.37432E+00    96   0.482E+00    0.154E+01
RMM:   2    -0.319689324406E+01   -0.26401E+00   -0.23235E+01    49   0.387E+01    0.252E+01
RMM:   3    -0.108928378375E+01    0.21076E+01   -0.51639E+00    48   0.178E+01    0.173E+01
RMM:   4    -0.114685691747E+01   -0.57573E-01   -0.16588E+00    52   0.951E+00    0.114E+01
RMM:   5    -0.272173985684E+01   -0.15749E+01   -0.73265E-01    49   0.561E+00    0.122E+01
RMM:   6    -0.258050888355E+01    0.14123E+00   -0.42807E-02    48   0.215E+00    0.120E+01
RMM:   7    -0.308133252884E+01   -0.50082E+00   -0.29632E-01    50   0.327E+00    0.889E+00
RMM:   8    -0.332275581546E+01   -0.24142E+00   -0.30753E-02    49   0.166E+00    0.860E+00
RMM:   9    -0.354421127797E+01   -0.22146E+00   -0.30806E-02    49   0.129E+00    0.788E+00
RMM:  10    -0.413701948095E+01   -0.59281E+00   -0.36580E-01    48   0.364E+00    0.798E+00
RMM:  11    -0.469219028170E+01   -0.55517E+00   -0.13157E-01    51   0.301E+00    0.620E+00
RMM:  12    -0.466489379829E+01    0.27296E-01   -0.13409E-02    55   0.899E-01    0.606E+00
RMM:  13    -0.467042581210E+01   -0.55320E-02   -0.15043E-03    52   0.274E-01    0.609E+00
RMM:  14    -0.469029202421E+01   -0.19866E-01   -0.25554E-02    48   0.116E+00    0.598E+00
RMM:  15    -0.473671398150E+01   -0.46422E-01   -0.51811E-02    51   0.167E+00    0.523E+00
RMM:  16    -0.481687987330E+01   -0.80166E-01   -0.12925E-02    50   0.862E-01    0.480E+00
RMM:  17    -0.499213856473E+01   -0.17526E+00   -0.43398E-02    49   0.162E+00    0.367E+00
RMM:  18    -0.522809565173E+01   -0.23596E+00   -0.10706E-01    51   0.258E+00    0.193E+00
RMM:  19    -0.524465831082E+01   -0.16563E-01   -0.95142E-03    53   0.901E-01    0.176E+00
RMM:  20    -0.525623455794E+01   -0.11576E-01   -0.19860E-03    54   0.327E-01    0.181E+00
RMM:  21    -0.523820728614E+01    0.18027E-01   -0.12846E-03    50   0.337E-01    0.172E+00
RMM:  22    -0.522010811170E+01    0.18099E-01   -0.24268E-02    48   0.134E+00    0.195E+00
RMM:  23    -0.530249495879E+01   -0.82387E-01   -0.10452E-02    49   0.972E-01    0.170E+00
RMM:  24    -0.537005757921E+01   -0.67563E-01   -0.10053E-02    52   0.759E-01    0.139E+00
RMM:  25    -0.537696265496E+01   -0.69051E-02   -0.26713E-03    55   0.370E-01    0.131E+00
RMM:  26    -0.538018974007E+01   -0.32271E-02   -0.38970E-04    53   0.146E-01    0.133E+00
RMM:  27    -0.534860577500E+01    0.31584E-01   -0.45074E-03    49   0.595E-01    0.123E+00
RMM:  28    -0.538494459897E+01   -0.36339E-01   -0.61903E-03    50   0.685E-01    0.124E+00
RMM:  29    -0.540403024477E+01   -0.19086E-01   -0.12724E-02    51   0.847E-01    0.121E+00
RMM:  30    -0.540935792197E+01   -0.53277E-02   -0.23164E-03    54   0.366E-01    0.119E+00
RMM:  31    -0.540488932478E+01    0.44686E-02   -0.38169E-04    53   0.154E-01    0.120E+00
RMM:  32    -0.540096105466E+01    0.39283E-02   -0.47904E-04    54   0.112E-01    0.120E+00
RMM:  33    -0.540620087697E+01   -0.52398E-02   -0.64478E-04    54   0.139E-01    0.119E+00
RMM:  34    -0.542972128560E+01   -0.23520E-01   -0.51216E-03    54   0.470E-01    0.115E+00
RMM:  35    -0.544793426975E+01   -0.18213E-01   -0.17899E-02    53   0.882E-01    0.113E+00
RMM:  36    -0.544772970469E+01    0.20457E-03   -0.46206E-03    51   0.536E-01    0.112E+00
RMM:  37    -0.547394167998E+01   -0.26212E-01   -0.69699E-03    51   0.543E-01    0.105E+00
RMM:  38    -0.547973377575E+01   -0.57921E-02   -0.28920E-03    54   0.366E-01    0.103E+00
RMM:  39    -0.548740621071E+01   -0.76724E-02   -0.59917E-03    51   0.474E-01    0.101E+00
RMM:  40    -0.548914578970E+01   -0.17396E-02   -0.73008E-04    52   0.218E-01    0.101E+00
RMM:  41    -0.548977765287E+01   -0.63186E-03   -0.42133E-04    56   0.920E-02    0.101E+00
RMM:  42    -0.548948793601E+01    0.28972E-03   -0.18079E-02    48   0.794E-01    0.103E+00
RMM:  43    -0.549762812683E+01   -0.81402E-02   -0.16482E-02    54   0.891E-01    0.981E-01
RMM:  44    -0.550073533451E+01   -0.31072E-02   -0.72480E-03    55   0.455E-01    0.954E-01
RMM:  45    -0.578316837421E+01   -0.28243E+00   -0.80723E-02    54   0.227E-01    0.817E+00
RMM:  46    -0.583963548733E+01   -0.56467E-01   -0.12423E-01    50   0.809E-01    0.901E+00
RMM:  47    -0.604261435328E+01   -0.20298E+00   -0.99406E-02    53   0.212E+00    0.134E+01
RMM:  48    -0.599834825397E+01    0.44266E-01   -0.45532E-02    52   0.104E+00    0.117E+01
RMM:  49    -0.602519169217E+01   -0.26843E-01   -0.51128E-03    56   0.411E-01    0.116E+01
RMM:  50    -0.591373499487E+01    0.11146E+00   -0.91386E-03    53   0.691E-01    0.925E+00
RMM:  51    -0.596359916993E+01   -0.49864E-01   -0.14972E-03    48   0.476E-01    0.924E+00
RMM:  52    -0.569417009190E+01    0.26943E+00   -0.46538E-01    54   0.430E+00    0.208E+01
RMM:  53    -0.553800488046E+01    0.15617E+00   -0.26371E-02    48   0.210E+00    0.207E+01
RMM:  54    -0.530543038338E+01    0.23257E+00   -0.23940E-02    50   0.134E+00    0.207E+01
RMM:  55    -0.539735835758E+01   -0.91928E-01   -0.86537E-03    54   0.700E-01    0.208E+01
RMM:  56    -0.548879327098E+01   -0.91435E-01   -0.39854E-02    49   0.121E+00    0.205E+01
RMM:  57    -0.545001375963E+01    0.38780E-01   -0.19765E-02    48   0.111E+00    0.204E+01
RMM:  58    -0.533319274172E+01    0.11682E+00   -0.81439E-03    52   0.793E-01    0.203E+01
RMM:  59    -0.521453564061E+01    0.11866E+00   -0.41855E-02    48   0.176E+00    0.188E+01
RMM:  60    -0.515428426713E+01    0.60251E-01   -0.13326E-02    49   0.115E+00    0.133E+01
RMM:  61    -0.515935118625E+01   -0.50669E-02   -0.14963E-02    49   0.117E+00    0.199E+00
RMM:  62    -0.538914132819E+01   -0.22979E+00   -0.12146E-02    48   0.139E+00    0.154E+00
RMM:  63    -0.540561554702E+01   -0.16474E-01   -0.51502E-03    51   0.659E-01    0.127E+00
RMM:  64    -0.552575083225E+01   -0.12014E+00   -0.37313E-02    48   0.170E+00    0.141E+01
RMM:  65    -0.534411787119E+01    0.18163E+00   -0.42296E-02    49   0.205E+00    0.125E+01
RMM:  66    -0.529442655132E+01    0.49691E-01   -0.96907E-03    49   0.875E-01    0.137E+01
RMM:  67    -0.536455169994E+01   -0.70125E-01   -0.23718E-02    48   0.153E+00    0.177E+01
RMM:  68    -0.520046568703E+01    0.16409E+00   -0.94490E-03    49   0.103E+00    0.140E+01
RMM:  69    -0.521694325440E+01   -0.16478E-01   -0.23306E-03    49   0.494E-01    0.126E+01
RMM:  70    -0.523175725639E+01   -0.14814E-01   -0.15968E-03    48   0.430E-01    0.126E+01
RMM:  71    -0.522911495850E+01    0.26423E-02   -0.72743E-03    50   0.739E-01    0.883E+00
RMM:  72    -0.528370796668E+01   -0.54593E-01   -0.95576E-03    48   0.901E-01    0.893E+00
RMM:  73    -0.529321431769E+01   -0.95064E-02   -0.12752E-02    54   0.867E-01    0.603E+00
RMM:  74    -0.537513534411E+01   -0.81921E-01   -0.37913E-02    50   0.144E+00    0.500E+00
RMM:  75    -0.551606155705E+01   -0.14093E+00   -0.32991E-02    49   0.164E+00    0.102E+01
RMM:  76    -0.545916042397E+01    0.56901E-01   -0.33337E-03    49   0.706E-01    0.103E+01
RMM:  77    -0.543038887476E+01    0.28772E-01   -0.17279E-02    50   0.953E-01    0.105E+01
RMM:  78    -0.541080691821E+01    0.19582E-01   -0.17087E-03    51   0.316E-01    0.102E+01
RMM:  79    -0.545495291380E+01   -0.44146E-01   -0.18527E-03    51   0.248E-01    0.119E+01
RMM:  80    -0.540877723975E+01    0.46176E-01   -0.55073E-04    48   0.271E-01    0.118E+01
RMM:  81    -0.539221962065E+01    0.16558E-01   -0.15936E-03    49   0.352E-01    0.118E+01
RMM:  82    -0.540665007362E+01   -0.14430E-01   -0.38471E-03    48   0.579E-01    0.117E+01
RMM:  83    -0.540138710042E+01    0.52630E-02   -0.10717E-02    50   0.848E-01    0.117E+01
RMM:  84    -0.536693394659E+01    0.34453E-01   -0.77070E-03    50   0.760E-01    0.103E+01
RMM:  85    -0.536719469029E+01   -0.26074E-03   -0.40361E-03    50   0.530E-01    0.946E+00
RMM:  86    -0.535933437701E+01    0.78603E-02   -0.72371E-03    48   0.632E-01    0.754E+00
RMM:  87    -0.537247121808E+01   -0.13137E-01   -0.23408E-02    48   0.112E+00    0.427E+00
RMM:  88    -0.544424993480E+01   -0.71779E-01   -0.17479E-02    49   0.110E+00    0.471E+00
RMM:  89    -0.546403548061E+01   -0.19786E-01   -0.13378E-02    54   0.732E-01    0.497E+00
RMM:  90    -0.546335232683E+01    0.68315E-03   -0.76219E-03    51   0.614E-01    0.266E+00
RMM:  91    -0.548736276731E+01   -0.24010E-01   -0.54762E-03    51   0.569E-01    0.112E+00
RMM:  92    -0.550607904162E+01   -0.18716E-01   -0.12709E-02    49   0.812E-01    0.369E-01
RMM:  93    -0.552038298687E+01   -0.14304E-01   -0.73961E-03    51   0.691E-01    0.476E-01
RMM:  94    -0.552412413869E+01   -0.37412E-02   -0.11566E-03    54   0.315E-01    0.627E-01
RMM:  95    -0.552495542321E+01   -0.83128E-03   -0.14187E-03    50   0.269E-01    0.333E-01
RMM:  96    -0.552668204351E+01   -0.17266E-02   -0.21755E-03    49   0.408E-01    0.520E-01
RMM:  97    -0.552734642708E+01   -0.66438E-03   -0.18020E-03    49   0.388E-01    0.520E-01
RMM:  98    -0.552749484879E+01   -0.14842E-03   -0.13616E-04    49   0.140E-01    0.525E-01
RMM:  99    -0.552733509307E+01    0.15976E-03   -0.20830E-05    47   0.460E-02    0.530E-01
RMM: 100    -0.552734822379E+01   -0.13131E-04   -0.21053E-04    50   0.132E-01
   2 F= -.55318920E+01 E0= -.55297819E+01  d E =-.223809E+01  mag=    -0.9328
 trial-energy change:   -2.238087  1 .order   -0.000232   -0.000410   -0.000054
 step:   1.0000(harm=  1.1507)  dis= 0.00297  next Energy=    -5.531892 (dE=-0.224E+01)
 bond charge predicted
       N       E                     dE             d eps       ncg     rms          rms(c)
DAV:   1    -0.552742266878E+01   -0.87576E-04   -0.21912E-03    72   0.250E-01    0.496E-01
RMM:   2    -0.551865477507E+01    0.87679E-02   -0.18413E-02    52   0.100E+00    0.248E+00
RMM:   3    -0.549861993200E+01    0.20035E-01   -0.62357E-03    49   0.738E-01    0.530E-01
RMM:   4    -0.549709974063E+01    0.15202E-02   -0.35574E-03    52   0.473E-01    0.611E-01
RMM:   5    -0.549685147606E+01    0.24826E-03   -0.23227E-04    54   0.133E-01    0.631E-01
RMM:   6    -0.549110261199E+01    0.57489E-02   -0.23853E-03    48   0.453E-01    0.110E+00
RMM:   7    -0.549626681681E+01   -0.51642E-02   -0.82898E-04    50   0.262E-01    0.804E-01
RMM:   8    -0.551181645844E+01   -0.15550E-01   -0.26256E-03    50   0.388E-01    0.282E+00
RMM:   9    -0.549221957590E+01    0.19597E-01   -0.13955E-03    48   0.420E-01    0.318E+00
RMM:  10    -0.548621923096E+01    0.60003E-02   -0.22073E-03    48   0.420E-01    0.135E+00
RMM:  11    -0.551030240893E+01   -0.24083E-01   -0.30384E-03    52   0.443E-01    0.965E-01
RMM:  12    -0.551698687679E+01   -0.66845E-02   -0.99136E-04    51   0.262E-01    0.400E-01
RMM:  13    -0.551830820468E+01   -0.13213E-02   -0.83655E-04    48   0.269E-01    0.653E-01
RMM:  14    -0.552166188022E+01   -0.33537E-02   -0.10776E-04    48   0.102E-01    0.649E-01
RMM:  15    -0.552540068949E+01   -0.37388E-02   -0.24028E-04    50   0.101E-01    0.608E-01
RMM:  16    -0.552579182726E+01   -0.39114E-03   -0.21899E-05    43   0.337E-02    0.621E-01
RMM:  17    -0.552383803383E+01    0.19538E-02   -0.19330E-04    48   0.127E-01    0.647E-01
RMM:  18    -0.552284457474E+01    0.99346E-03   -0.37719E-05    47   0.521E-02    0.759E-01
RMM:  19    -0.552235169149E+01    0.49288E-03   -0.42924E-05    48   0.731E-02    0.653E-01
RMM:  20    -0.552335310379E+01   -0.10014E-02   -0.69214E-05    50   0.771E-02    0.600E-01
RMM:  21    -0.552393179427E+01   -0.57869E-03   -0.23027E-05    48   0.525E-02    0.623E-01
RMM:  22    -0.552461808782E+01   -0.68629E-03   -0.99206E-04    51   0.221E-01    0.480E-01
RMM:  23    -0.552382720557E+01    0.79088E-03   -0.52193E-04    49   0.176E-01    0.551E-01
RMM:  24    -0.552295107962E+01    0.87613E-03   -0.34511E-04    49   0.166E-01    0.540E-01
RMM:  25    -0.552524883189E+01   -0.22978E-02   -0.56101E-04    49   0.207E-01    0.562E-01
RMM:  26    -0.552393863649E+01    0.13102E-02   -0.17476E-03    48   0.347E-01    0.520E-01
RMM:  27    -0.552495652647E+01   -0.10179E-02   -0.78977E-04    48   0.239E-01    0.477E-01
RMM:  28    -0.552622703948E+01   -0.12705E-02   -0.17277E-03    48   0.342E-01    0.355E-01
RMM:  29    -0.552670450851E+01   -0.47747E-03   -0.12909E-03    49   0.295E-01    0.396E-01
RMM:  30    -0.552510777521E+01    0.15967E-02   -0.10193E-03    51   0.275E-01    0.354E-01
RMM:  31    -0.552458057744E+01    0.52720E-03   -0.51817E-03    49   0.570E-01    0.348E-01
RMM:  32    -0.552610490539E+01   -0.15243E-02   -0.25550E-03    48   0.477E-01    0.320E-01
RMM:  33    -0.552755465012E+01   -0.14497E-02   -0.12147E-04    48   0.119E-01    0.300E-01
RMM:  34    -0.552956697907E+01   -0.20123E-02   -0.80337E-04    48   0.290E-01    0.229E-01
RMM:  35    -0.553036588032E+01   -0.79890E-03   -0.99116E-05    49   0.114E-01    0.231E-01
RMM:  36    -0.553021812367E+01    0.14776E-03   -0.56664E-05    47   0.929E-02    0.228E-01
RMM:  37    -0.553070294101E+01   -0.48482E-03   -0.22658E-05    45   0.474E-02    0.223E-01
RMM:  38    -0.553046527562E+01    0.23767E-03   -0.26735E-05    46   0.581E-02    0.223E-01
RMM:  39    -0.552917429132E+01    0.12910E-02   -0.71748E-03    48   0.791E-01    0.281E-01
RMM:  40    -0.553158998737E+01   -0.24157E-02   -0.33034E-04    48   0.251E-01    0.242E-01
RMM:  41    -0.553196193940E+01   -0.37195E-03   -0.17620E-04    47   0.125E-01    0.261E-01
RMM:  42    -0.553142432399E+01    0.53762E-03   -0.23507E-03    48   0.450E-01    0.281E-01
RMM:  43    -0.553175226565E+01   -0.32794E-03   -0.28246E-04    48   0.203E-01    0.253E-01
RMM:  44    -0.553225598094E+01   -0.50372E-03   -0.33160E-05    49   0.751E-02    0.255E-01
RMM:  45    -0.553235560141E+01   -0.99620E-04   -0.48567E-04    48   0.224E-01    0.250E-01
RMM:  46    -0.553229730578E+01    0.58296E-04   -0.48997E-05    49   0.737E-02    0.252E-01
RMM:  47    -0.552524948851E+01    0.70478E-02   -0.10971E-02    48   0.102E+00    0.169E-01
RMM:  48    -0.552993013775E+01   -0.46806E-02   -0.96394E-04    49   0.352E-01    0.194E-01
RMM:  49    -0.552979436664E+01    0.13577E-03   -0.25239E-04    53   0.125E-01    0.189E-01
RMM:  50    -0.552882519561E+01    0.96917E-03   -0.97028E-04    49   0.268E-01    0.156E-01
RMM:  51    -0.552899028889E+01   -0.16509E-03   -0.15016E-04    48   0.133E-01    0.163E-01
RMM:  52    -0.552440401248E+01    0.45863E-02   -0.36013E-03    48   0.481E-01    0.159E-01
RMM:  53    -0.552239451567E+01    0.20095E-02   -0.22600E-03    49   0.371E-01    0.157E-01
RMM:  54    -0.551823733269E+01    0.41572E-02   -0.11353E-03    48   0.307E-01    0.213E-01
RMM:  55    -0.551582305575E+01    0.24143E-02   -0.97622E-04    49   0.252E-01    0.261E-01
RMM:  56    -0.551504927453E+01    0.77378E-03   -0.74836E-04    49   0.229E-01    0.228E-01
RMM:  57    -0.551478898539E+01    0.26029E-03   -0.39863E-04    49   0.208E-01    0.241E-01
RMM:  58    -0.551549756119E+01   -0.70858E-03   -0.17949E-04    48   0.122E-01    0.246E-01
RMM:  59    -0.551636585857E+01   -0.86830E-03   -0.10994E-03    48   0.280E-01    0.218E-01
RMM:  60    -0.551562227136E+01    0.74359E-03   -0.73663E-03    48   0.620E-01    0.166E-01
RMM:  61    -0.551839320626E+01   -0.27709E-02   -0.11420E-03    48   0.403E-01    0.158E-01
RMM:  62    -0.551506245378E+01    0.33308E-02   -0.27176E-02    48   0.113E+00    0.348E-01
RMM:  63    -0.552041660458E+01   -0.53542E-02   -0.35461E-03    49   0.475E-01    0.403E-01
RMM:  64    -0.552384698025E+01   -0.34304E-02   -0.13761E-03    48   0.326E-01    0.316E-01
RMM:  65    -0.552084077858E+01    0.30062E-02   -0.62855E-03    49   0.580E-01    0.499E-01
RMM:  66    -0.552154998264E+01   -0.70920E-03   -0.13673E-02    48   0.105E+00    0.864E-01
RMM:  67    -0.552236675505E+01   -0.81677E-03   -0.18793E-03    48   0.450E-01    0.986E-01
RMM:  68    -0.552021628349E+01    0.21505E-02   -0.14167E-04    51   0.137E-01    0.108E+00
RMM:  69    -0.551869767430E+01    0.15186E-02   -0.17153E-03    48   0.393E-01    0.965E-01
RMM:  70    -0.552020107599E+01   -0.15034E-02   -0.30027E-03    48   0.385E-01    0.898E-01
RMM:  71    -0.552150125307E+01   -0.13002E-02   -0.90912E-03    48   0.659E-01    0.907E-01
RMM:  72    -0.552170137746E+01   -0.20012E-03   -0.40284E-03    49   0.471E-01    0.106E+00
RMM:  73    -0.552506180424E+01   -0.33604E-02   -0.32039E-03    48   0.544E-01    0.134E+00
RMM:  74    -0.552258113659E+01    0.24807E-02   -0.71234E-04    50   0.243E-01    0.142E+00
RMM:  75    -0.551954492508E+01    0.30362E-02   -0.53933E-04    49   0.220E-01    0.102E+00
RMM:  76    -0.552256263007E+01   -0.30177E-02   -0.14787E-03    48   0.345E-01    0.104E+00
RMM:  77    -0.552514796543E+01   -0.25853E-02   -0.59006E-03    48   0.677E-01    0.129E+00
RMM:  78    -0.552297587463E+01    0.21721E-02   -0.32872E-04    48   0.206E-01    0.129E+00
RMM:  79    -0.552196643563E+01    0.10094E-02   -0.52703E-05    47   0.838E-02    0.132E+00
RMM:  80    -0.552182526437E+01    0.14117E-03   -0.16728E-05    50   0.423E-02    0.135E+00
RMM:  81    -0.552035439881E+01    0.14709E-02   -0.16502E-03    48   0.362E-01    0.913E-01
RMM:  82    -0.551990265676E+01    0.45174E-03   -0.26935E-03    49   0.505E-01    0.523E-01
RMM:  83    -0.552423192409E+01   -0.43293E-02   -0.30798E-04    48   0.228E-01    0.622E-01
RMM:  84    -0.552126668647E+01    0.29652E-02   -0.13600E-03    48   0.370E-01    0.569E-01
RMM:  85    -0.551652492742E+01    0.47418E-02   -0.91179E-03    48   0.955E-01    0.637E-01
RMM:  86    -0.552092534363E+01   -0.44004E-02   -0.88276E-04    50   0.342E-01    0.685E-01
RMM:  87    -0.552546925397E+01   -0.45439E-02   -0.22015E-03    48   0.508E-01    0.755E-01
RMM:  88    -0.552682377706E+01   -0.13545E-02   -0.26457E-03    48   0.494E-01    0.552E-01
RMM:  89    -0.553114571748E+01   -0.43219E-02   -0.55497E-04    49   0.275E-01    0.918E-01
RMM:  90    -0.552782192759E+01    0.33238E-02   -0.28106E-04    49   0.202E-01    0.837E-01
RMM:  91    -0.552732316384E+01    0.49876E-03   -0.28297E-04    49   0.160E-01    0.799E-01
RMM:  92    -0.552645581819E+01    0.86735E-03   -0.26940E-03    48   0.440E-01    0.757E-01
RMM:  93    -0.552751177907E+01   -0.10560E-02   -0.25223E-04    49   0.160E-01    0.757E-01
RMM:  94    -0.552728673133E+01    0.22505E-03   -0.54182E-03    48   0.652E-01    0.980E-01
RMM:  95    -0.552533812402E+01    0.19486E-02   -0.17632E-03    50   0.330E-01    0.784E-01
RMM:  96    -0.552543681960E+01   -0.98696E-04   -0.90145E-04    53   0.200E-01    0.794E-01
RMM:  97    -0.552759439073E+01   -0.21576E-02   -0.29121E-03    48   0.535E-01    0.139E+00
RMM:  98    -0.552199178170E+01    0.56026E-02   -0.18003E-03    48   0.431E-01    0.153E+00
RMM:  99    -0.551978379978E+01    0.22080E-02   -0.76465E-04    51   0.230E-01    0.144E+00
RMM: 100    -0.551999894433E+01   -0.21514E-03   -0.10684E-03    49   0.273E-01
   3 F= -.55245428E+01 E0= -.55142897E+01  d E =-.223074E+01  mag=    -1.0672
 curvature:  -0.00 expect dE=-0.516E-09 dE for cont linesearch -0.227E-09
 ZBRENT: increasing intervall
 opt :   1.0000  next Energy=    -5.524543 (dE=-0.223E+01)
 bond charge predicted
       N       E                     dE             d eps       ncg     rms          rms(c)
DAV:   1    -0.552043515641E+01   -0.65136E-03   -0.13441E-03    84   0.178E-01    0.143E+00
RMM:   2    -0.544183534791E+01    0.78600E-01   -0.16825E-01    50   0.321E+00    0.201E+00
RMM:   3    -0.552881157209E+01   -0.86976E-01   -0.34984E-02    48   0.168E+00    0.115E+00
RMM:   4    -0.553003649656E+01   -0.12249E-02   -0.14373E-02    52   0.852E-01    0.881E-01
RMM:   5    -0.553111522340E+01   -0.10787E-02   -0.35411E-03    56   0.444E-01    0.704E-01
RMM:   6    -0.553086220015E+01    0.25302E-03   -0.30195E-04    51   0.132E-01    0.650E-01
RMM:   7    -0.553127265701E+01   -0.41046E-03   -0.81588E-05    49   0.897E-02    0.687E-01
RMM:   8    -0.553185663297E+01   -0.58398E-03   -0.58385E-04    51   0.214E-01    0.774E-01
RMM:   9    -0.553293984049E+01   -0.10832E-02   -0.57349E-04    51   0.199E-01    0.658E-01
RMM:  10    -0.553338327135E+01   -0.44343E-03   -0.19117E-04    51   0.134E-01    0.620E-01
RMM:  11    -0.553390873749E+01   -0.52547E-03   -0.12886E-04    54   0.908E-02    0.554E-01
RMM:  12    -0.553396705123E+01   -0.58314E-04   -0.37012E-04    49   0.171E-01    0.609E-01
RMM:  13    -0.553217351503E+01    0.17935E-02   -0.14426E-03    53   0.312E-01    0.526E-01
RMM:  14    -0.553302640227E+01   -0.85289E-03   -0.92720E-05    50   0.109E-01    0.529E-01
RMM:  15    -0.553255768561E+01    0.46872E-03   -0.14641E-04    48   0.126E-01    0.480E-01
RMM:  16    -0.553318490788E+01   -0.62722E-03   -0.95093E-05    47   0.105E-01    0.454E-01
RMM:  17    -0.553232595826E+01    0.85895E-03   -0.63380E-04    49   0.242E-01    0.458E-01
RMM:  18    -0.553223688681E+01    0.89071E-04   -0.39113E-05    48   0.868E-02    0.470E-01
RMM:  19    -0.553200187047E+01    0.23502E-03   -0.10185E-04    49   0.939E-02    0.450E-01
RMM:  20    -0.553137203534E+01    0.62984E-03   -0.14092E-04    48   0.126E-01    0.441E-01
RMM:  21    -0.553168053542E+01   -0.30850E-03   -0.90057E-06    45   0.442E-02    0.443E-01
RMM:  22    -0.552969642012E+01    0.19841E-02   -0.34167E-03    48   0.557E-01    0.444E-01
RMM:  23    -0.553170673435E+01   -0.20103E-02   -0.38665E-04    48   0.263E-01    0.199E-01
RMM:  24    -0.553343349127E+01   -0.17268E-02   -0.65154E-03    50   0.758E-01    0.188E+00
RMM:  25    -0.552324069494E+01    0.10193E-01   -0.11648E-03    48   0.436E-01    0.162E+00
RMM:  26    -0.552156119256E+01    0.16795E-02   -0.98618E-05    51   0.969E-02    0.145E+00
RMM:  27    -0.552382634702E+01   -0.22652E-02   -0.50214E-04    48   0.228E-01    0.130E+00
RMM:  28    -0.552409710682E+01   -0.27076E-03   -0.76688E-04    48   0.260E-01    0.126E+00
RMM:  29    -0.552763916073E+01   -0.35421E-02   -0.58434E-04    48   0.198E-01    0.258E+00
RMM:  30    -0.551021652142E+01    0.17423E-01   -0.13428E-03    48   0.360E-01    0.240E-01
RMM:  31    -0.553137489595E+01   -0.21158E-01   -0.10883E-03    48   0.378E-01    0.100E-01
RMM:  32    -0.553478263795E+01   -0.34077E-02   -0.86871E-04    48   0.329E-01    0.220E-01
RMM:  33    -0.553352433924E+01    0.12583E-02   -0.12674E-03    50   0.335E-01    0.145E-01
RMM:  34    -0.553397918583E+01   -0.45485E-03   -0.10158E-03    50   0.319E-01    0.108E-01
RMM:  35    -0.553403381393E+01   -0.54628E-04   -0.66888E-04    48   0.309E-01    0.107E-01
RMM:  36    -0.553078298122E+01    0.32508E-02   -0.26375E-03    48   0.518E-01    0.104E-01
RMM:  37    -0.553180623887E+01   -0.10233E-02   -0.11052E-03    50   0.327E-01    0.102E-01
RMM:  38    -0.553163370591E+01    0.17253E-03   -0.69561E-04    50   0.258E-01    0.199E-01
RMM:  39    -0.553164545817E+01   -0.11752E-04   -0.99010E-04    52   0.288E-01    0.157E-01
RMM:  40    -0.553275414381E+01   -0.11087E-02   -0.24200E-03    48   0.528E-01    0.221E-01
RMM:  41    -0.553368535766E+01   -0.93121E-03   -0.20063E-04    49   0.176E-01    0.863E-02
RMM:  42    -0.553406119196E+01   -0.37583E-03   -0.51802E-05    49   0.795E-02    0.855E-02
RMM:  43    -0.553395099049E+01    0.11020E-03   -0.17886E-05    51   0.428E-02    0.842E-02
RMM:  44    -0.553359900929E+01    0.35198E-03   -0.86186E-05    48   0.886E-02    0.843E-02
RMM:  45    -0.553285927911E+01    0.73973E-03   -0.31152E-04    47   0.178E-01    0.929E-02
RMM:  46    -0.553267846342E+01    0.18082E-03   -0.45759E-04    49   0.210E-01    0.102E-01
RMM:  47    -0.553265494145E+01    0.23522E-04   -0.29822E-04    49   0.167E-01    0.130E-01
RMM:  48    -0.553335499415E+01   -0.70005E-03   -0.67015E-04    48   0.285E-01    0.133E-01
RMM:  49    -0.553347462018E+01   -0.11963E-03   -0.13940E-04    47   0.124E-01    0.119E-01
RMM:  50    -0.552646871440E+01    0.70059E-02   -0.98494E-03    48   0.998E-01    0.115E-01
RMM:  51    -0.553106998434E+01   -0.46013E-02   -0.10198E-03    48   0.369E-01    0.121E-01
RMM:  52    -0.553227226689E+01   -0.12023E-02   -0.65297E-04    49   0.267E-01    0.192E-01
RMM:  53    -0.553220239908E+01    0.69868E-04   -0.78253E-05    50   0.109E-01    0.194E-01
RMM:  54    -0.553091990564E+01    0.12825E-02   -0.11504E-03    48   0.342E-01    0.256E-01
RMM:  55    -0.553211264636E+01   -0.11927E-02   -0.70232E-05    48   0.116E-01    0.280E-01
RMM:  56    -0.553253816219E+01   -0.42552E-03   -0.15481E-04    49   0.129E-01    0.260E-01
RMM:  57    -0.553142481776E+01    0.11133E-02   -0.51033E-03    48   0.692E-01    0.242E-01
RMM:  58    -0.553243198358E+01   -0.10072E-02   -0.25663E-03    49   0.473E-01    0.220E-01
RMM:  59    -0.553165864337E+01    0.77334E-03   -0.15062E-03    48   0.392E-01    0.153E-01
RMM:  60    -0.553213108228E+01   -0.47244E-03   -0.29102E-04    48   0.166E-01    0.141E-01
RMM:  61    -0.553058509292E+01    0.15460E-02   -0.27385E-03    48   0.478E-01    0.131E-01
RMM:  62    -0.553116873850E+01   -0.58365E-03   -0.15105E-03    48   0.363E-01    0.185E-01
RMM:  63    -0.553208775246E+01   -0.91901E-03   -0.11390E-04    49   0.135E-01    0.215E-01
RMM:  64    -0.553210642184E+01   -0.18669E-04   -0.45659E-04    48   0.191E-01    0.125E-01
RMM:  65    -0.553197883377E+01    0.12759E-03   -0.16932E-03    48   0.409E-01    0.128E-01
RMM:  66    -0.553266790706E+01   -0.68907E-03   -0.16327E-03    50   0.379E-01    0.981E-02
RMM:  67    -0.553303361657E+01   -0.36571E-03   -0.17431E-03    50   0.380E-01    0.169E-01
RMM:  68    -0.553371429654E+01   -0.68068E-03   -0.18607E-04    49   0.164E-01    0.169E-01
RMM:  69    -0.553344932192E+01    0.26497E-03   -0.39848E-05    52   0.653E-02    0.174E-01
RMM:  70    -0.553310817888E+01    0.34114E-03   -0.74267E-05    47   0.921E-02    0.176E-01
RMM:  71    -0.553237200597E+01    0.73617E-03   -0.34132E-03    48   0.562E-01    0.132E-01
RMM:  72    -0.553004981312E+01    0.23222E-02   -0.53032E-03    48   0.754E-01    0.107E-01
RMM:  73    -0.552709067060E+01    0.29591E-02   -0.80094E-03    48   0.865E-01    0.122E-01
RMM:  74    -0.553413461010E+01   -0.70439E-02   -0.83516E-04    49   0.355E-01    0.895E-02
RMM:  75    -0.553301393160E+01    0.11207E-02   -0.82056E-04    48   0.283E-01    0.956E-02
RMM:  76    -0.553315377869E+01   -0.13985E-03   -0.53771E-04    51   0.213E-01    0.960E-02
RMM:  77    -0.553408764218E+01   -0.93386E-03   -0.21988E-04    50   0.138E-01    0.101E-01
RMM:  78    -0.553411224705E+01   -0.24605E-04   -0.14194E-04    50   0.934E-02    0.984E-02
RMM:  79    -0.553460693842E+01   -0.49469E-03   -0.24413E-04    48   0.141E-01    0.891E-02
RMM:  80    -0.553332161012E+01    0.12853E-02   -0.12641E-03    50   0.298E-01    0.935E-02
RMM:  81    -0.553417052606E+01   -0.84892E-03   -0.15180E-04    50   0.105E-01    0.910E-02
RMM:  82    -0.553436400038E+01   -0.19347E-03   -0.56383E-04    50   0.197E-01    0.101E-01
RMM:  83    -0.553422880786E+01    0.13519E-03   -0.10456E-04    50   0.785E-02    0.102E-01
RMM:  84    -0.553449840003E+01   -0.26959E-03   -0.16348E-04    48   0.119E-01    0.995E-02
RMM:  85    -0.553457114778E+01   -0.72748E-04   -0.10354E-04    51   0.890E-02    0.995E-02
RMM:  86    -0.553435421544E+01    0.21693E-03   -0.74059E-04    48   0.214E-01    0.927E-02
RMM:  87    -0.552643111948E+01    0.79231E-02   -0.23933E-02    48   0.141E+00    0.186E-01
RMM:  88    -0.553321660458E+01   -0.67855E-02   -0.31052E-03    50   0.380E-01    0.143E-01
RMM:  89    -0.553366277679E+01   -0.44617E-03   -0.39329E-04    51   0.174E-01    0.141E-01
RMM:  90    -0.553379048685E+01   -0.12771E-03   -0.11723E-03    48   0.312E-01    0.147E-01
RMM:  91    -0.553348776710E+01    0.30272E-03   -0.42081E-04    48   0.228E-01    0.138E-01
RMM:  92    -0.553331633478E+01    0.17143E-03   -0.25230E-03    48   0.458E-01    0.158E-01
RMM:  93    -0.553299910734E+01    0.31723E-03   -0.58251E-04    48   0.285E-01    0.147E-01
RMM:  94    -0.553339620042E+01   -0.39709E-03   -0.29212E-04    48   0.156E-01    0.147E-01
RMM:  95    -0.553354599818E+01   -0.14980E-03   -0.29450E-04    49   0.146E-01    0.159E-01
RMM:  96    -0.553366059108E+01   -0.11459E-03   -0.24741E-05    45   0.558E-02    0.160E-01
RMM:  97    -0.553384398450E+01   -0.18339E-03   -0.37209E-04    49   0.176E-01    0.158E-01
RMM:  98    -0.553332776901E+01    0.51622E-03   -0.13955E-03    49   0.290E-01    0.178E-01
RMM:  99    -0.553381565861E+01   -0.48789E-03   -0.43774E-04    50   0.109E-01    0.174E-01
RMM: 100    -0.553389009610E+01   -0.74437E-04   -0.20347E-05    49   0.422E-02
   4 F= -.55384339E+01 E0= -.55347786E+01  d E =-.224463E+01  mag=    -1.0618
 curvature:  -0.00 expect dE=-0.993E-09 dE for cont linesearch -0.616E-09
 ZBRENT: increasing intervall
 opt :   1.0000  next Energy=    -5.538434 (dE=-0.224E+01)
 bond charge predicted
       N       E                     dE             d eps       ncg     rms          rms(c)
DAV:   1    -0.553341259200E+01    0.40307E-03   -0.78135E-04    72   0.162E-01    0.170E-01
RMM:   2    -0.553590266205E+01   -0.24901E-02   -0.16323E-03    49   0.412E-01    0.681E-01
RMM:   3    -0.553367432660E+01    0.22283E-02   -0.31086E-04    48   0.210E-01    0.343E-01
RMM:   4    -0.553477085822E+01   -0.10965E-02   -0.15802E-04    48   0.125E-01    0.220E-01
RMM:   5    -0.553512109247E+01   -0.35023E-03   -0.84245E-05    49   0.100E-01    0.180E-01
RMM:   6    -0.553454332382E+01    0.57777E-03   -0.39869E-04    48   0.196E-01    0.149E-01
RMM:   7    -0.553376039378E+01    0.78293E-03   -0.83263E-04    49   0.278E-01    0.173E-01
RMM:   8    -0.553476780914E+01   -0.10074E-02   -0.12415E-04    48   0.131E-01    0.143E-01
RMM:   9    -0.553521287681E+01   -0.44507E-03   -0.33631E-05    48   0.683E-02    0.196E-01
RMM:  10    -0.553517491012E+01    0.37967E-04   -0.89931E-06    43   0.418E-02    0.193E-01
RMM:  11    -0.553515867905E+01    0.16231E-04   -0.28659E-06    36   0.221E-02    0.207E-01
RMM:  12    -0.553489318046E+01    0.26550E-03   -0.21812E-05    46   0.517E-02    0.192E-01
RMM:  13    -0.553504606975E+01   -0.15289E-03   -0.69966E-06    43   0.279E-02    0.182E-01
RMM:  14    -0.553526566944E+01   -0.21960E-03   -0.19035E-05    46   0.431E-02    0.208E-01
RMM:  15    -0.553519372242E+01    0.71947E-04   -0.17355E-05    45   0.484E-02    0.172E-01
RMM:  16    -0.553537344105E+01   -0.17972E-03   -0.52835E-04    48   0.235E-01    0.297E-01
RMM:  17    -0.553532769630E+01    0.45745E-04   -0.42828E-05    49   0.924E-02    0.303E-01
RMM:  18    -0.553481793781E+01    0.50976E-03   -0.20019E-04    49   0.134E-01    0.354E-01
RMM:  19    -0.553499097121E+01   -0.17303E-03   -0.56611E-05    49   0.756E-02    0.286E-01
RMM:  20    -0.553536286860E+01   -0.37190E-03   -0.83921E-06    43   0.337E-02    0.288E-01
RMM:  21    -0.553376261685E+01    0.16003E-02   -0.81046E-04    48   0.273E-01    0.108E-01
RMM:  22    -0.553446899705E+01   -0.70638E-03   -0.16799E-03    48   0.371E-01    0.145E-01
RMM:  23    -0.553482699315E+01   -0.35800E-03   -0.49785E-04    48   0.200E-01    0.140E-01
RMM:  24    -0.553488771782E+01   -0.60725E-04   -0.25463E-04    53   0.131E-01    0.139E-01
RMM:  25    -0.553476612557E+01    0.12159E-03   -0.43080E-05    48   0.822E-02    0.147E-01
RMM:  26    -0.553464113563E+01    0.12499E-03   -0.25280E-04    48   0.148E-01    0.160E-01
RMM:  27    -0.553492107791E+01   -0.27994E-03   -0.12345E-04    49   0.965E-02    0.150E-01
RMM:  28    -0.553114292401E+01    0.37782E-02   -0.16446E-03    48   0.383E-01    0.174E-01
RMM:  29    -0.552680309856E+01    0.43398E-02   -0.39109E-03    48   0.541E-01    0.209E-01
RMM:  30    -0.553135425529E+01   -0.45512E-02   -0.24126E-03    48   0.502E-01    0.163E-01
RMM:  31    -0.552938880146E+01    0.19655E-02   -0.12645E-03    48   0.377E-01    0.161E-01
RMM:  32    -0.552821315901E+01    0.11756E-02   -0.31649E-03    48   0.567E-01    0.173E-01
RMM:  33    -0.552930441401E+01   -0.10913E-02   -0.45655E-04    48   0.258E-01    0.195E-01
RMM:  34    -0.552818249547E+01    0.11219E-02   -0.23995E-03    48   0.484E-01    0.302E-01
RMM:  35    -0.552951386789E+01   -0.13314E-02   -0.38711E-04    48   0.209E-01    0.441E-01
RMM:  36    -0.553285646180E+01   -0.33426E-02   -0.85646E-03    48   0.808E-01    0.101E+00
RMM:  37    -0.553242709268E+01    0.42937E-03   -0.51580E-04    48   0.291E-01    0.100E+00
RMM:  38    -0.553143765513E+01    0.98944E-03   -0.17697E-04    49   0.155E-01    0.102E+00
RMM:  39    -0.553100883244E+01    0.42882E-03   -0.91167E-05    48   0.924E-02    0.101E+00
RMM:  40    -0.553095090416E+01    0.57928E-04   -0.73452E-06    44   0.295E-02    0.101E+00
RMM:  41    -0.553071992165E+01    0.23098E-03   -0.85756E-05    47   0.792E-02    0.925E-01
RMM:  42    -0.553093075190E+01   -0.21083E-03   -0.48261E-04    47   0.194E-01    0.797E-01
RMM:  43    -0.553163561719E+01   -0.70487E-03   -0.32242E-04    48   0.171E-01    0.711E-01
RMM:  44    -0.553321006825E+01   -0.15745E-02   -0.79761E-04    48   0.287E-01    0.748E-01
RMM:  45    -0.553330396750E+01   -0.93899E-04   -0.59236E-05    47   0.110E-01    0.720E-01
RMM:  46    -0.553150351755E+01    0.18004E-02   -0.10258E-03    48   0.335E-01    0.441E-01
RMM:  47    -0.553235244147E+01   -0.84892E-03   -0.43829E-03    48   0.643E-01    0.822E-01
RMM:  48    -0.553336142940E+01   -0.10090E-02   -0.95259E-04    48   0.370E-01    0.829E-01
RMM:  49    -0.552512625195E+01    0.82352E-02   -0.19492E-02    48   0.123E+00    0.399E-01
RMM:  50    -0.553240378465E+01   -0.72775E-02   -0.21683E-03    48   0.489E-01    0.407E-01
RMM:  51    -0.553338592442E+01   -0.98214E-03   -0.10918E-03    48   0.390E-01    0.392E-01
RMM:  52    -0.553065983516E+01    0.27261E-02   -0.42518E-03    48   0.651E-01    0.344E-01
RMM:  53    -0.552745330726E+01    0.32065E-02   -0.92407E-03    48   0.901E-01    0.312E-01
RMM:  54    -0.553141308783E+01   -0.39598E-02   -0.13528E-03    49   0.402E-01    0.345E-01
RMM:  55    -0.553183176409E+01   -0.41868E-03   -0.33006E-04    53   0.189E-01    0.371E-01
RMM:  56    -0.553168310722E+01    0.14866E-03   -0.41452E-05    54   0.605E-02    0.371E-01
RMM:  57    -0.553149402576E+01    0.18908E-03   -0.11993E-03    48   0.359E-01    0.336E-01
RMM:  58    -0.553223192690E+01   -0.73790E-03   -0.52326E-04    48   0.258E-01    0.368E-01
RMM:  59    -0.553126437673E+01    0.96755E-03   -0.38662E-03    48   0.615E-01    0.315E-01
RMM:  60    -0.553265439728E+01   -0.13900E-02   -0.10805E-03    48   0.367E-01    0.349E-01
RMM:  61    -0.553156687724E+01    0.10875E-02   -0.40004E-04    48   0.239E-01    0.348E-01
RMM:  62    -0.553315780559E+01   -0.15909E-02   -0.82918E-04    48   0.281E-01    0.298E-01
RMM:  63    -0.553017973459E+01    0.29781E-02   -0.91841E-03    49   0.967E-01    0.310E-01
RMM:  64    -0.553426951025E+01   -0.40898E-02   -0.55387E-04    50   0.276E-01    0.303E-01
RMM:  65    -0.553436842166E+01   -0.98911E-04   -0.17977E-04    54   0.118E-01    0.307E-01
RMM:  66    -0.553417197161E+01    0.19645E-03   -0.54240E-05    47   0.846E-02    0.306E-01
RMM:  67    -0.553416816892E+01    0.38027E-05   -0.33269E-04    48   0.178E-01    0.284E-01
RMM:  68    -0.553448397006E+01   -0.31580E-03   -0.52452E-04    48   0.246E-01    0.297E-01
RMM:  69    -0.553449075616E+01   -0.67861E-05   -0.12257E-04    48   0.116E-01    0.293E-01
RMM:  70    -0.553341205683E+01    0.10787E-02   -0.11009E-03    49   0.350E-01    0.268E-01
RMM:  71    -0.553486203075E+01   -0.14500E-02   -0.66753E-04    48   0.271E-01    0.226E-01
RMM:  72    -0.553248732054E+01    0.23747E-02   -0.29263E-03    48   0.540E-01    0.204E-01
RMM:  73    -0.553268695243E+01   -0.19963E-03   -0.22421E-03    48   0.430E-01    0.259E-01
RMM:  74    -0.553467305503E+01   -0.19861E-02   -0.20126E-04    50   0.166E-01    0.245E-01
RMM:  75    -0.553413211925E+01    0.54094E-03   -0.34736E-04    50   0.168E-01    0.234E-01
RMM:  76    -0.553321324584E+01    0.91887E-03   -0.87291E-04    51   0.240E-01    0.204E-01
RMM:  77    -0.552949488405E+01    0.37184E-02   -0.96777E-03    48   0.862E-01    0.210E-01
RMM:  78    -0.553369329439E+01   -0.41984E-02   -0.13078E-03    50   0.275E-01    0.221E-01
RMM:  79    -0.553419823788E+01   -0.50494E-03   -0.24250E-04    52   0.120E-01    0.214E-01
RMM:  80    -0.553416200446E+01    0.36233E-04   -0.37489E-05    45   0.486E-02    0.212E-01
RMM:  81    -0.553439678612E+01   -0.23478E-03   -0.18180E-04    47   0.137E-01    0.214E-01
RMM:  82    -0.553088560396E+01    0.35112E-02   -0.76977E-03    48   0.833E-01    0.339E-01
RMM:  83    -0.553088648423E+01   -0.88027E-06   -0.41901E-03    48   0.662E-01    0.756E-01
RMM:  84    -0.553300969071E+01   -0.21232E-02   -0.24895E-03    48   0.512E-01    0.170E+00
RMM:  85    -0.552675325775E+01    0.62564E-02   -0.12756E-03    48   0.401E-01    0.179E+00
RMM:  86    -0.552231591882E+01    0.44373E-02   -0.24492E-04    48   0.163E-01    0.166E+00
RMM:  87    -0.552452945460E+01   -0.22135E-02   -0.76722E-04    49   0.253E-01    0.225E+00
RMM:  88    -0.551713014595E+01    0.73993E-02   -0.25443E-04    49   0.145E-01    0.208E+00
RMM:  89    -0.551802414098E+01   -0.89400E-03   -0.40702E-04    47   0.199E-01    0.235E+00
RMM:  90    -0.552026225217E+01   -0.22381E-02   -0.94257E-04    48   0.312E-01    0.293E+00
RMM:  91    -0.550841701622E+01    0.11845E-01   -0.18434E-04    48   0.167E-01    0.253E+00
RMM:  92    -0.551440583830E+01   -0.59888E-02   -0.26256E-03    48   0.496E-01    0.274E+00
RMM:  93    -0.551063355564E+01    0.37723E-02   -0.14779E-04    47   0.150E-01    0.277E+00
RMM:  94    -0.551083782580E+01   -0.20427E-03   -0.57323E-05    52   0.740E-02    0.294E+00
RMM:  95    -0.550547277135E+01    0.53651E-02   -0.17246E-04    47   0.133E-01    0.240E+00
RMM:  96    -0.551552186919E+01   -0.10049E-01   -0.34113E-04    48   0.198E-01    0.299E+00
RMM:  97    -0.550627854545E+01    0.92433E-02   -0.31038E-03    48   0.469E-01    0.222E+00
RMM:  98    -0.551450568617E+01   -0.82271E-02   -0.49783E-04    50   0.218E-01    0.234E+00
RMM:  99    -0.551779148202E+01   -0.32858E-02   -0.47476E-04    49   0.209E-01    0.294E+00
RMM: 100    -0.550936329704E+01    0.84282E-02   -0.11610E-04    50   0.127E-01
   5 F= -.55139071E+01 E0= -.54972271E+01  d E =-.222010E+01  mag=    -1.0576
 curvature:  -0.00 expect dE=-0.250E-08 dE for cont linesearch -0.766E-09
 ZBRENT: increasing intervall
 opt :   1.0001  next Energy=    -5.513907 (dE=-0.222E+01)
 bond charge predicted
       N       E                     dE             d eps       ncg     rms          rms(c)
DAV:   1    -0.550814969061E+01    0.96418E-02   -0.95065E-05    72   0.542E-02    0.258E+00
RMM:   2    -0.523536770127E+01    0.27278E+00   -0.51371E-01    50   0.555E+00    0.333E+00
RMM:   3    -0.552750068262E+01   -0.29213E+00   -0.10636E-01    48   0.282E+00    0.184E+00
RMM:   4    -0.553544417501E+01   -0.79435E-02   -0.40754E-02    50   0.145E+00    0.147E+00
RMM:   5    -0.553666632066E+01   -0.12221E-02   -0.20977E-02    55   0.109E+00    0.111E+00
RMM:   6    -0.553639417846E+01    0.27214E-03   -0.11829E-03    55   0.195E-01    0.108E+00
RMM:   7    -0.553267623609E+01    0.37179E-02   -0.41414E-04    48   0.221E-01    0.110E+00
RMM:   8    -0.553328059649E+01   -0.60436E-03   -0.43393E-05    49   0.646E-02    0.110E+00
RMM:   9    -0.553457108548E+01   -0.12905E-02   -0.68766E-05    50   0.801E-02    0.110E+00
RMM:  10    -0.553509662923E+01   -0.52554E-03   -0.31645E-03    50   0.413E-01    0.890E-01
RMM:  11    -0.553172391457E+01    0.33727E-02   -0.16441E-03    54   0.351E-01    0.819E-01
RMM:  12    -0.553227484914E+01   -0.55093E-03   -0.12394E-04    49   0.995E-02    0.821E-01
RMM:  13    -0.552543817308E+01    0.68367E-02   -0.26883E-03    50   0.393E-01    0.472E-01
RMM:  14    -0.552622987045E+01   -0.79170E-03   -0.15372E-03    53   0.329E-01    0.379E-01
RMM:  15    -0.553189604485E+01   -0.56662E-02   -0.98779E-04    48   0.290E-01    0.583E-01
RMM:  16    -0.553625032048E+01   -0.43543E-02   -0.15778E-03    53   0.330E-01    0.713E-01
RMM:  17    -0.553934995827E+01   -0.30996E-02   -0.12554E-03    55   0.257E-01    0.800E-01
RMM:  18    -0.553790451728E+01    0.14454E-02   -0.14705E-04    48   0.133E-01    0.769E-01
RMM:  19    -0.553280695234E+01    0.50976E-02   -0.18629E-03    50   0.348E-01    0.638E-01
RMM:  20    -0.553315673963E+01   -0.34979E-03   -0.11779E-04    49   0.136E-01    0.634E-01
RMM:  21    -0.553436646237E+01   -0.12097E-02   -0.11458E-04    48   0.109E-01    0.657E-01
RMM:  22    -0.553564714699E+01   -0.12807E-02   -0.51594E-04    48   0.202E-01    0.668E-01
RMM:  23    -0.553491461121E+01    0.73254E-03   -0.35795E-04    50   0.173E-01    0.608E-01
RMM:  24    -0.553542869143E+01   -0.51408E-03   -0.27987E-05    48   0.654E-02    0.608E-01
RMM:  25    -0.553547505341E+01   -0.46362E-04   -0.32218E-06    37   0.188E-02    0.607E-01
RMM:  26    -0.553545196912E+01    0.23084E-04   -0.13459E-06    34   0.151E-02    0.609E-01
RMM:  27    -0.553846691841E+01   -0.30149E-02   -0.11163E-03    48   0.272E-01    0.714E-01
RMM:  28    -0.553934739662E+01   -0.88048E-03   -0.55899E-04    52   0.206E-01    0.719E-01
RMM:  29    -0.553971494441E+01   -0.36755E-03   -0.30355E-05    46   0.700E-02    0.715E-01
RMM:  30    -0.553987170487E+01   -0.15676E-03   -0.19952E-05    47   0.388E-02    0.711E-01
RMM:  31    -0.553956177765E+01    0.30993E-03   -0.24827E-05    42   0.436E-02    0.704E-01
RMM:  32    -0.553825872539E+01    0.13031E-02   -0.46826E-04    48   0.190E-01    0.688E-01
RMM:  33    -0.553734055040E+01    0.91817E-03   -0.43174E-04    52   0.176E-01    0.675E-01
RMM:  34    -0.553598716586E+01    0.13534E-02   -0.68262E-04    50   0.209E-01    0.657E-01
RMM:  35    -0.553644929464E+01   -0.46213E-03   -0.47641E-04    48   0.223E-01    0.681E-01
RMM:  36    -0.553698310037E+01   -0.53381E-03   -0.79434E-05    48   0.767E-02    0.693E-01
RMM:  37    -0.553697814893E+01    0.49514E-05   -0.99366E-06    44   0.412E-02    0.692E-01
RMM:  38    -0.553692402778E+01    0.54121E-04   -0.28146E-05    42   0.421E-02    0.688E-01
RMM:  39    -0.553635344985E+01    0.57058E-03   -0.95274E-04    48   0.226E-01    0.670E-01
RMM:  40    -0.553508530778E+01    0.12681E-02   -0.24289E-03    49   0.298E-01    0.661E-01
RMM:  41    -0.553593262713E+01   -0.84732E-03   -0.33970E-04    48   0.197E-01    0.665E-01
RMM:  42    -0.553649242874E+01   -0.55980E-03   -0.12722E-03    48   0.319E-01    0.661E-01
RMM:  43    -0.553738778072E+01   -0.89535E-03   -0.21525E-04    52   0.161E-01    0.668E-01
RMM:  44    -0.553764768907E+01   -0.25991E-03   -0.32140E-05    51   0.572E-02    0.669E-01
RMM:  45    -0.553671249424E+01    0.93519E-03   -0.38405E-04    48   0.185E-01    0.633E-01
RMM:  46    -0.553667229400E+01    0.40200E-04   -0.27727E-05    46   0.682E-02    0.633E-01
RMM:  47    -0.553667317752E+01   -0.88352E-06   -0.73223E-05    47   0.909E-02    0.636E-01
RMM:  48    -0.553677215167E+01   -0.98974E-04   -0.83490E-06    42   0.265E-02    0.633E-01
RMM:  49    -0.553658091392E+01    0.19124E-03   -0.15246E-04    47   0.123E-01    0.635E-01
RMM:  50    -0.553616685574E+01    0.41406E-03   -0.91764E-05    48   0.841E-02    0.634E-01
RMM:  51    -0.553446818611E+01    0.16987E-02   -0.18613E-03    48   0.338E-01    0.593E-01
RMM:  52    -0.554173610095E+01   -0.72679E-02   -0.11002E-02    50   0.881E-01    0.391E+00
RMM:  53    -0.549544207168E+01    0.46294E-01   -0.27210E-03    48   0.667E-01    0.241E+00
RMM:  54    -0.553512333424E+01   -0.39681E-01   -0.12705E-02    52   0.796E-01    0.815E+00
RMM:  55    -0.542384226910E+01    0.11128E+00   -0.51202E-03    48   0.843E-01    0.585E+00
RMM:  56    -0.550879069167E+01   -0.84948E-01   -0.38089E-03    51   0.558E-01    0.116E+01
RMM:  57    -0.532374666690E+01    0.18504E+00   -0.51383E-02    49   0.212E+00    0.942E-01
RMM:  58    -0.550484389197E+01   -0.18110E+00   -0.45752E-02    48   0.210E+00    0.152E+00
RMM:  59    -0.552098145193E+01   -0.16138E-01   -0.38717E-03    49   0.717E-01    0.544E-01
RMM:  60    -0.553134375893E+01   -0.10362E-01   -0.44279E-03    49   0.726E-01    0.628E-01
RMM:  61    -0.553202236047E+01   -0.67860E-03   -0.11362E-03    48   0.360E-01    0.413E-01
RMM:  62    -0.553220883643E+01   -0.18648E-03   -0.11083E-02    48   0.914E-01    0.532E-01
RMM:  63    -0.553060857406E+01    0.16003E-02   -0.24387E-02    48   0.104E+00    0.645E-01
RMM:  64    -0.553330923702E+01   -0.27007E-02   -0.93210E-03    48   0.789E-01    0.484E-01
RMM:  65    -0.553559975550E+01   -0.22905E-02   -0.18430E-03    49   0.333E-01    0.642E-01
RMM:  66    -0.553480295568E+01    0.79680E-03   -0.96712E-04    48   0.280E-01    0.580E-01
RMM:  67    -0.552719716735E+01    0.76058E-02   -0.20242E-02    48   0.943E-01    0.650E-01
RMM:  68    -0.553139814155E+01   -0.42010E-02   -0.15276E-03    48   0.436E-01    0.609E-01
RMM:  69    -0.553153377114E+01   -0.13563E-03   -0.71496E-04    48   0.290E-01    0.588E-01
RMM:  70    -0.553116685808E+01    0.36691E-03   -0.33258E-04    49   0.183E-01    0.563E-01
RMM:  71    -0.553134024287E+01   -0.17338E-03   -0.22621E-04    48   0.128E-01    0.511E-01
RMM:  72    -0.552899856122E+01    0.23417E-02   -0.17695E-02    48   0.111E+00    0.607E-01
RMM:  73    -0.553241517376E+01   -0.34166E-02   -0.90016E-04    49   0.316E-01    0.610E-01
RMM:  74    -0.553217523147E+01    0.23994E-03   -0.28951E-04    52   0.102E-01    0.618E-01
RMM:  75    -0.553141048141E+01    0.76475E-03   -0.26059E-04    49   0.126E-01    0.654E-01
RMM:  76    -0.553164903149E+01   -0.23855E-03   -0.61893E-03    48   0.743E-01    0.718E-01
RMM:  77    -0.553601039720E+01   -0.43614E-02   -0.66300E-03    51   0.698E-01    0.753E-01
RMM:  78    -0.553894109797E+01   -0.29307E-02   -0.75293E-04    53   0.256E-01    0.747E-01
RMM:  79    -0.553896177465E+01   -0.20677E-04   -0.41398E-03    48   0.567E-01    0.737E-01
RMM:  80    -0.553742401625E+01    0.15378E-02   -0.36996E-03    51   0.529E-01    0.707E-01
RMM:  81    -0.553800402611E+01   -0.58001E-03   -0.73813E-04    48   0.255E-01    0.707E-01
RMM:  82    -0.553265369681E+01    0.53503E-02   -0.21107E-02    48   0.110E+00    0.767E-01
RMM:  83    -0.553808979634E+01   -0.54361E-02   -0.13394E-03    51   0.295E-01    0.764E-01
RMM:  84    -0.553628554585E+01    0.18043E-02   -0.14037E-03    48   0.325E-01    0.724E-01
RMM:  85    -0.553401595879E+01    0.22696E-02   -0.23289E-03    50   0.390E-01    0.704E-01
RMM:  86    -0.553379162809E+01    0.22433E-03   -0.67148E-03    48   0.673E-01    0.641E-01
RMM:  87    -0.553393968936E+01   -0.14806E-03   -0.70380E-03    48   0.706E-01    0.654E-01
RMM:  88    -0.553554581575E+01   -0.16061E-02   -0.25541E-03    50   0.422E-01    0.651E-01
RMM:  89    -0.553623081350E+01   -0.68500E-03   -0.89096E-04    50   0.225E-01    0.642E-01
RMM:  90    -0.553647234801E+01   -0.24153E-03   -0.31463E-04    50   0.146E-01    0.635E-01
RMM:  91    -0.553634821515E+01    0.12413E-03   -0.51765E-04    49   0.179E-01    0.622E-01
RMM:  92    -0.553314904011E+01    0.31992E-02   -0.38513E-03    48   0.451E-01    0.561E-01
RMM:  93    -0.553420153416E+01   -0.10525E-02   -0.22085E-04    48   0.165E-01    0.542E-01
RMM:  94    -0.553424809517E+01   -0.46561E-04   -0.55322E-05    51   0.507E-02    0.541E-01
RMM:  95    -0.553590476755E+01   -0.16567E-02   -0.59535E-04    48   0.219E-01    0.579E-01
RMM:  96    -0.553771477923E+01   -0.18100E-02   -0.73251E-04    53   0.241E-01    0.621E-01
RMM:  97    -0.553772112771E+01   -0.63485E-05   -0.89687E-03    49   0.744E-01    0.623E-01
RMM:  98    -0.554076741046E+01   -0.30463E-02   -0.32105E-04    49   0.227E-01    0.636E-01
RMM:  99    -0.554058495187E+01    0.18246E-03   -0.69147E-05    55   0.622E-02    0.637E-01
RMM: 100    -0.554086231429E+01   -0.27736E-03   -0.27271E-05    51   0.453E-02
   6 F= -.55454061E+01 E0= -.55440750E+01  d E =-.225160E+01  mag=    -1.0674
 curvature:  -0.00 expect dE=-0.254E-08 dE for cont linesearch -0.137E-08
 ZBRENT: increasing intervall
 opt :   1.0001  next Energy=    -5.545406 (dE=-0.225E+01)
 bond charge predicted
       N       E                     dE             d eps       ncg     rms          rms(c)
DAV:   1    -0.554295357912E+01   -0.23686E-02   -0.22319E-03    72   0.269E-01    0.668E-01
RMM:   2    -0.552526203451E+01    0.17692E-01   -0.38215E-02    52   0.149E+00    0.672E-01
RMM:   3    -0.552381945150E+01    0.14426E-02   -0.60931E-03    50   0.716E-01    0.900E-01
RMM:   4    -0.552811275270E+01   -0.42933E-02   -0.35403E-03    52   0.500E-01    0.327E-01
RMM:   5    -0.552921146194E+01   -0.10987E-02   -0.14080E-03    48   0.359E-01    0.915E-01
RMM:   6    -0.552968739096E+01   -0.47593E-03   -0.17112E-03    50   0.405E-01    0.345E-01
RMM:   7    -0.553158051158E+01   -0.18931E-02   -0.21888E-04    48   0.186E-01    0.381E-01
RMM:   8    -0.552750636782E+01    0.40741E-02   -0.79913E-03    48   0.871E-01    0.567E-01
RMM:   9    -0.552642374011E+01    0.10826E-02   -0.35058E-03    49   0.587E-01    0.383E-01
RMM:  10    -0.552716855649E+01   -0.74482E-03   -0.11402E-03    51   0.340E-01    0.182E-01
RMM:  11    -0.552854925159E+01   -0.13807E-02   -0.14650E-04    49   0.150E-01    0.185E-01
RMM:  12    -0.553067570798E+01   -0.21265E-02   -0.11313E-03    50   0.308E-01    0.416E-01
RMM:  13    -0.553025057137E+01    0.42514E-03   -0.36212E-04    49   0.206E-01    0.335E-01
RMM:  14    -0.553081679248E+01   -0.56622E-03   -0.28108E-04    52   0.157E-01    0.269E-01
RMM:  15    -0.553170663593E+01   -0.88984E-03   -0.19418E-04    50   0.141E-01    0.103E-01
RMM:  16    -0.553196599349E+01   -0.25936E-03   -0.28517E-04    48   0.181E-01    0.122E-01
RMM:  17    -0.553164223289E+01    0.32376E-03   -0.31973E-05    47   0.791E-02    0.146E-01
RMM:  18    -0.553201454174E+01   -0.37231E-03   -0.50611E-05    48   0.774E-02    0.284E-01
RMM:  19    -0.553229090373E+01   -0.27636E-03   -0.62080E-05    48   0.870E-02    0.235E-01
RMM:  20    -0.553301526697E+01   -0.72436E-03   -0.11545E-04    48   0.897E-02    0.205E-01
RMM:  21    -0.553341272438E+01   -0.39746E-03   -0.34728E-04    48   0.186E-01    0.831E-02
RMM:  22    -0.553485768443E+01   -0.14450E-02   -0.68599E-05    48   0.109E-01    0.106E-01
RMM:  23    -0.553550802922E+01   -0.65034E-03   -0.74110E-05    47   0.885E-02    0.194E-01
RMM:  24    -0.553533222681E+01    0.17580E-03   -0.14552E-05    47   0.538E-02    0.206E-01
RMM:  25    -0.553534010734E+01   -0.78805E-05   -0.99110E-06    43   0.351E-02    0.221E-01
RMM:  26    -0.553519988333E+01    0.14022E-03   -0.33561E-06    39   0.219E-02    0.213E-01
RMM:  27    -0.553526428647E+01   -0.64403E-04   -0.75362E-06    44   0.288E-02    0.210E-01
RMM:  28    -0.553513349618E+01    0.13079E-03   -0.51980E-05    47   0.727E-02    0.220E-01
RMM:  29    -0.553509686570E+01    0.36630E-04   -0.35194E-05    47   0.664E-02    0.163E-01
RMM:  30    -0.553481930001E+01    0.27757E-03   -0.61787E-05    47   0.689E-02    0.886E-02
RMM:  31    -0.553483465848E+01   -0.15358E-04   -0.33820E-05    47   0.531E-02    0.129E-01
RMM:  32    -0.553430041128E+01    0.53425E-03   -0.26338E-04    48   0.154E-01    0.141E-01
RMM:  33    -0.553478207961E+01   -0.48167E-03   -0.24695E-04    49   0.127E-01    0.808E-02
RMM:  34    -0.553551833793E+01   -0.73626E-03   -0.25057E-04    48   0.129E-01    0.699E-02
RMM:  35    -0.553616750046E+01   -0.64916E-03   -0.39349E-04    48   0.153E-01    0.696E-02
RMM:  36    -0.553630648065E+01   -0.13898E-03   -0.25899E-05    45   0.606E-02    0.698E-02
RMM:  37    -0.553645481659E+01   -0.14834E-03   -0.31559E-05    47   0.563E-02    0.692E-02
RMM:  38    -0.553651919468E+01   -0.64378E-04   -0.16077E-04    47   0.127E-01    0.690E-02
RMM:  39    -0.553627850556E+01    0.24069E-03   -0.29322E-04    48   0.177E-01    0.725E-02
RMM:  40    -0.553695105895E+01   -0.67255E-03   -0.29766E-04    48   0.185E-01    0.831E-02
RMM:  41    -0.553686767110E+01    0.83388E-04   -0.35078E-04    48   0.179E-01    0.108E-01
RMM:  42    -0.553296783297E+01    0.38998E-02   -0.36779E-03    48   0.616E-01    0.116E-01
RMM:  43    -0.553484734655E+01   -0.18795E-02   -0.59054E-03    48   0.772E-01    0.102E-01
RMM:  44    -0.553683148301E+01   -0.19841E-02   -0.17609E-04    48   0.195E-01    0.869E-02
RMM:  45    -0.553636916313E+01    0.46232E-03   -0.13502E-03    49   0.351E-01    0.132E-01
RMM:  46    -0.553668624442E+01   -0.31708E-03   -0.10146E-04    48   0.142E-01    0.126E-01
RMM:  47    -0.553624716990E+01    0.43907E-03   -0.11746E-03    48   0.342E-01    0.104E-01
RMM:  48    -0.553676169793E+01   -0.51453E-03   -0.46744E-04    48   0.217E-01    0.130E-01
RMM:  49    -0.553707692381E+01   -0.31523E-03   -0.65447E-04    49   0.232E-01    0.163E-01
RMM:  50    -0.553722356865E+01   -0.14664E-03   -0.53223E-05    48   0.102E-01    0.161E-01
RMM:  51    -0.553637807585E+01    0.84549E-03   -0.30844E-04    48   0.193E-01    0.165E-01
RMM:  52    -0.553576106297E+01    0.61701E-03   -0.12050E-03    48   0.281E-01    0.191E-01
RMM:  53    -0.553679221366E+01   -0.10312E-02   -0.11471E-03    48   0.361E-01    0.187E-01
RMM:  54    -0.553708187952E+01   -0.28967E-03   -0.70614E-05    48   0.109E-01    0.176E-01
RMM:  55    -0.553676594709E+01    0.31593E-03   -0.67738E-05    47   0.941E-02    0.173E-01
RMM:  56    -0.553652854282E+01    0.23740E-03   -0.11576E-04    47   0.104E-01    0.173E-01
RMM:  57    -0.553294260606E+01    0.35859E-02   -0.27189E-03    48   0.535E-01    0.172E-01
RMM:  58    -0.553631428817E+01   -0.33717E-02   -0.60972E-04    48   0.282E-01    0.157E-01
RMM:  59    -0.553636884426E+01   -0.54556E-04   -0.94951E-04    48   0.319E-01    0.116E-01
RMM:  60    -0.553261473197E+01    0.37541E-02   -0.91942E-03    48   0.890E-01    0.216E-01
RMM:  61    -0.553710226506E+01   -0.44875E-02   -0.79642E-04    48   0.335E-01    0.201E-01
RMM:  62    -0.553724416424E+01   -0.14190E-03   -0.16559E-03    48   0.347E-01    0.237E-01
RMM:  63    -0.553359303160E+01    0.36511E-02   -0.26790E-03    48   0.560E-01    0.198E-01
RMM:  64    -0.553690852954E+01   -0.33155E-02   -0.42727E-04    48   0.242E-01    0.200E-01
RMM:  65    -0.553662347690E+01    0.28505E-03   -0.26494E-04    49   0.152E-01    0.183E-01
RMM:  66    -0.553735713718E+01   -0.73366E-03   -0.14423E-03    48   0.339E-01    0.160E-01
RMM:  67    -0.553425742137E+01    0.30997E-02   -0.23774E-03    48   0.517E-01    0.133E-01
RMM:  68    -0.553262080468E+01    0.16366E-02   -0.25270E-03    48   0.497E-01    0.152E-01
RMM:  69    -0.553617415475E+01   -0.35534E-02   -0.28660E-04    50   0.207E-01    0.134E-01
RMM:  70    -0.553596397729E+01    0.21018E-03   -0.70223E-04    49   0.254E-01    0.143E-01
RMM:  71    -0.553604254455E+01   -0.78567E-04   -0.37292E-04    49   0.190E-01    0.139E-01
RMM:  72    -0.553637515554E+01   -0.33261E-03   -0.57806E-04    48   0.212E-01    0.150E-01
RMM:  73    -0.553376314870E+01    0.26120E-02   -0.26130E-03    48   0.459E-01    0.215E-01
RMM:  74    -0.553681892905E+01   -0.30558E-02   -0.90734E-04    48   0.352E-01    0.176E-01
RMM:  75    -0.553714567298E+01   -0.32674E-03   -0.12973E-04    47   0.128E-01    0.178E-01
RMM:  76    -0.553608706664E+01    0.10586E-02   -0.33287E-04    48   0.202E-01    0.183E-01
RMM:  77    -0.553696653816E+01   -0.87947E-03   -0.38810E-04    48   0.206E-01    0.164E-01
RMM:  78    -0.553723053559E+01   -0.26400E-03   -0.54746E-04    48   0.227E-01    0.158E-01
RMM:  79    -0.553358189863E+01    0.36486E-02   -0.96586E-03    49   0.908E-01    0.177E-01
RMM:  80    -0.553866713794E+01   -0.50852E-02   -0.72300E-04    49   0.308E-01    0.162E-01
RMM:  81    -0.553504756783E+01    0.36196E-02   -0.10476E-02    49   0.961E-01    0.296E-01
RMM:  82    -0.553918952215E+01   -0.41420E-02   -0.29342E-03    48   0.566E-01    0.326E-01
RMM:  83    -0.554034641372E+01   -0.11569E-02   -0.24296E-04    51   0.183E-01    0.325E-01
RMM:  84    -0.553986271523E+01    0.48370E-03   -0.10037E-04    48   0.123E-01    0.311E-01
RMM:  85    -0.554005873904E+01   -0.19602E-03   -0.15303E-03    48   0.382E-01    0.362E-01
RMM:  86    -0.554056123463E+01   -0.50250E-03   -0.15468E-04    48   0.142E-01    0.370E-01
RMM:  87    -0.553706137274E+01    0.34999E-02   -0.21371E-03    48   0.492E-01    0.294E-01
RMM:  88    -0.553261229703E+01    0.44491E-02   -0.56663E-03    48   0.716E-01    0.175E-01
RMM:  89    -0.553716176611E+01   -0.45495E-02   -0.74315E-04    48   0.308E-01    0.147E-01
RMM:  90    -0.553639867074E+01    0.76310E-03   -0.14845E-03    49   0.366E-01    0.118E-01
RMM:  91    -0.553795569914E+01   -0.15570E-02   -0.40804E-04    49   0.218E-01    0.105E-01
RMM:  92    -0.553834832877E+01   -0.39263E-03   -0.37432E-03    48   0.623E-01    0.245E-01
RMM:  93    -0.553776760445E+01    0.58072E-03   -0.14544E-03    48   0.418E-01    0.163E-01
RMM:  94    -0.553957198100E+01   -0.18044E-02   -0.12273E-03    48   0.389E-01    0.211E-01
RMM:  95    -0.553964804948E+01   -0.76068E-04   -0.59192E-05    48   0.114E-01    0.205E-01
RMM:  96    -0.553989986908E+01   -0.25182E-03   -0.13891E-04    47   0.118E-01    0.218E-01
RMM:  97    -0.553919881432E+01    0.70105E-03   -0.19815E-03    48   0.443E-01    0.298E-01
RMM:  98    -0.553818711184E+01    0.10117E-02   -0.49381E-03    49   0.677E-01    0.408E-01
RMM:  99    -0.554029344460E+01   -0.21063E-02   -0.37781E-04    48   0.264E-01    0.375E-01
RMM: 100    -0.553986667232E+01    0.42677E-03   -0.12782E-04    48   0.137E-01
   7 F= -.55444105E+01 E0= -.55433035E+01  d E =-.225061E+01  mag=    -1.0530
 curvature:  -0.00 expect dE=-0.151E-07 dE for cont linesearch -0.110E-07
 ZBRENT: increasing intervall
 opt :   1.0003  next Energy=    -5.544411 (dE=-0.225E+01)
 bond charge predicted
       N       E                     dE             d eps       ncg     rms          rms(c)
DAV:   1    -0.554007551122E+01    0.21793E-03   -0.10760E-05    72   0.347E-02    0.357E-01
RMM:   2    -0.554810482703E+01   -0.80293E-02   -0.11654E-02    52   0.827E-01    0.413E+00
RMM:   3    -0.551334463911E+01    0.34760E-01   -0.65876E-03    48   0.863E-01    0.825E-01
RMM:   4    -0.553426041482E+01   -0.20916E-01   -0.17414E-03    51   0.425E-01    0.974E-01
RMM:   5    -0.553556884365E+01   -0.13084E-02   -0.68502E-05    51   0.908E-02    0.973E-01
RMM:   6    -0.553036380526E+01    0.52050E-02   -0.46300E-04    48   0.218E-01    0.953E-01
RMM:   7    -0.553099418150E+01   -0.63038E-03   -0.36885E-04    49   0.155E-01    0.111E+00
RMM:   8    -0.553031095933E+01    0.68322E-03   -0.94566E-05    47   0.107E-01    0.117E+00
RMM:   9    -0.552808644402E+01    0.22245E-02   -0.15472E-04    47   0.128E-01    0.747E-01
RMM:  10    -0.553148789202E+01   -0.34014E-02   -0.58321E-04    49   0.219E-01    0.124E+00
RMM:  11    -0.552873577288E+01    0.27521E-02   -0.10913E-04    48   0.134E-01    0.114E+00
RMM:  12    -0.552868879177E+01    0.46981E-04   -0.37421E-05    54   0.454E-02    0.126E+00
RMM:  13    -0.552809412468E+01    0.59467E-03   -0.50908E-05    47   0.737E-02    0.152E+00
RMM:  14    -0.552638159330E+01    0.17125E-02   -0.23062E-05    47   0.643E-02    0.148E+00
RMM:  15    -0.552635387855E+01    0.27715E-04   -0.30939E-05    48   0.534E-02    0.140E+00
RMM:  16    -0.552695558638E+01   -0.60171E-03   -0.81980E-05    48   0.914E-02    0.143E+00
RMM:  17    -0.552695143694E+01    0.41494E-05   -0.82071E-06    43   0.370E-02    0.139E+00
RMM:  18    -0.552723473931E+01   -0.28330E-03   -0.98871E-05    47   0.103E-01    0.131E+00
RMM:  19    -0.552828798597E+01   -0.10532E-02   -0.32683E-04    47   0.182E-01    0.104E+00
RMM:  20    -0.553018049166E+01   -0.18925E-02   -0.65711E-05    50   0.897E-02    0.102E+00
RMM:  21    -0.553067647203E+01   -0.49598E-03   -0.25753E-04    47   0.163E-01    0.118E+00
RMM:  22    -0.552981938003E+01    0.85709E-03   -0.23157E-04    48   0.157E-01    0.108E+00
RMM:  23    -0.553095041054E+01   -0.11310E-02   -0.86617E-04    48   0.290E-01    0.927E-01
RMM:  24    -0.553220791150E+01   -0.12575E-02   -0.15828E-03    48   0.398E-01    0.632E-01
RMM:  25    -0.553463852092E+01   -0.24306E-02   -0.21121E-04    48   0.177E-01    0.624E-01
RMM:  26    -0.553385937846E+01    0.77914E-03   -0.55845E-04    48   0.268E-01    0.500E-01
RMM:  27    -0.553433177984E+01   -0.47240E-03   -0.10363E-03    48   0.323E-01    0.399E-01
RMM:  28    -0.553505339996E+01   -0.72162E-03   -0.22884E-04    47   0.169E-01    0.409E-01
RMM:  29    -0.553618612093E+01   -0.11327E-02   -0.19716E-04    48   0.167E-01    0.453E-01
RMM:  30    -0.553016407695E+01    0.60220E-02   -0.40439E-03    48   0.655E-01    0.370E-01
RMM:  31    -0.553380755364E+01   -0.36435E-02   -0.11224E-02    48   0.108E+00    0.217E-01
RMM:  32    -0.553459504670E+01   -0.78749E-03   -0.43349E-03    48   0.663E-01    0.188E-01
RMM:  33    -0.553627892405E+01   -0.16839E-02   -0.12015E-03    48   0.422E-01    0.190E-01
RMM:  34    -0.553877738443E+01   -0.24985E-02   -0.12755E-03    48   0.385E-01    0.191E-01
RMM:  35    -0.553715473895E+01    0.16226E-02   -0.26373E-04    48   0.193E-01    0.166E-01
RMM:  36    -0.553719908775E+01   -0.44349E-04   -0.34307E-05    47   0.704E-02    0.166E-01
RMM:  37    -0.553763711846E+01   -0.43803E-03   -0.17986E-05    46   0.443E-02    0.158E-01
RMM:  38    -0.553552395684E+01    0.21132E-02   -0.15775E-03    48   0.405E-01    0.226E-01
RMM:  39    -0.553488038591E+01    0.64357E-03   -0.38513E-03    49   0.615E-01    0.271E-01
RMM:  40    -0.553644141734E+01   -0.15610E-02   -0.21233E-04    48   0.207E-01    0.277E-01
RMM:  41    -0.553629958108E+01    0.14184E-03   -0.46919E-05    50   0.624E-02    0.278E-01
RMM:  42    -0.553681054405E+01   -0.51096E-03   -0.38269E-04    47   0.202E-01    0.276E-01
RMM:  43    -0.553672443739E+01    0.86107E-04   -0.30277E-05    49   0.668E-02    0.276E-01
RMM:  44    -0.553652652137E+01    0.19792E-03   -0.19248E-05    46   0.525E-02    0.270E-01
RMM:  45    -0.553592716591E+01    0.59936E-03   -0.27724E-04    47   0.175E-01    0.295E-01
RMM:  46    -0.553688929399E+01   -0.96213E-03   -0.12547E-03    48   0.355E-01    0.297E-01
RMM:  47    -0.553191155359E+01    0.49777E-02   -0.11568E-02    48   0.107E+00    0.406E-01
RMM:  48    -0.553645400185E+01   -0.45424E-02   -0.43550E-04    49   0.280E-01    0.400E-01
RMM:  49    -0.553619099211E+01    0.26301E-03   -0.19843E-04    53   0.113E-01    0.409E-01
RMM:  50    -0.553576089324E+01    0.43010E-03   -0.42884E-04    47   0.203E-01    0.467E-01
RMM:  51    -0.553350830889E+01    0.22526E-02   -0.14448E-03    49   0.397E-01    0.510E-01
RMM:  52    -0.553300726576E+01    0.50104E-03   -0.13424E-03    51   0.317E-01    0.639E-01
RMM:  53    -0.553287261334E+01    0.13465E-03   -0.14879E-03    49   0.391E-01    0.490E-01
RMM:  54    -0.553178127296E+01    0.10913E-02   -0.13822E-03    51   0.362E-01    0.487E-01
RMM:  55    -0.553148265769E+01    0.29862E-03   -0.13616E-03    50   0.353E-01    0.418E-01
RMM:  56    -0.553386655493E+01   -0.23839E-02   -0.19893E-04    50   0.150E-01    0.416E-01
RMM:  57    -0.552632468150E+01    0.75419E-02   -0.60997E-03    48   0.764E-01    0.333E-01
RMM:  58    -0.553404117178E+01   -0.77165E-02   -0.79241E-04    48   0.345E-01    0.319E-01
RMM:  59    -0.553444269811E+01   -0.40153E-03   -0.95774E-04    48   0.318E-01    0.325E-01
RMM:  60    -0.553344568249E+01    0.99702E-03   -0.19726E-03    48   0.448E-01    0.294E-01
RMM:  61    -0.552683219166E+01    0.66135E-02   -0.12931E-02    48   0.110E+00    0.323E-01
RMM:  62    -0.552925088781E+01   -0.24187E-02   -0.28518E-03    51   0.550E-01    0.309E-01
RMM:  63    -0.553216625773E+01   -0.29154E-02   -0.83783E-04    50   0.299E-01    0.394E-01
RMM:  64    -0.553383435673E+01   -0.16681E-02   -0.35661E-04    49   0.202E-01    0.414E-01
RMM:  65    -0.553495658777E+01   -0.11222E-02   -0.11133E-04    49   0.114E-01    0.415E-01
RMM:  66    -0.553509799319E+01   -0.14141E-03   -0.12411E-03    48   0.364E-01    0.435E-01
RMM:  67    -0.553373183105E+01    0.13662E-02   -0.36928E-03    48   0.594E-01    0.444E-01
RMM:  68    -0.552617171302E+01    0.75601E-02   -0.15647E-02    48   0.120E+00    0.516E-01
RMM:  69    -0.553647237910E+01   -0.10301E-01   -0.92900E-04    50   0.356E-01    0.493E-01
RMM:  70    -0.553622164287E+01    0.25074E-03   -0.10377E-03    51   0.274E-01    0.532E-01
RMM:  71    -0.553603906816E+01    0.18257E-03   -0.39271E-04    49   0.193E-01    0.579E-01
RMM:  72    -0.553638999080E+01   -0.35092E-03   -0.47604E-04    48   0.231E-01    0.563E-01
RMM:  73    -0.553733076326E+01   -0.94077E-03   -0.76119E-04    47   0.276E-01    0.532E-01
RMM:  74    -0.553660487529E+01    0.72589E-03   -0.30602E-03    48   0.540E-01    0.547E-01
RMM:  75    -0.553915893334E+01   -0.25541E-02   -0.61631E-04    49   0.271E-01    0.542E-01
RMM:  76    -0.553912263425E+01    0.36299E-04   -0.12854E-04    52   0.119E-01    0.540E-01
RMM:  77    -0.553558097284E+01    0.35417E-02   -0.66181E-03    48   0.794E-01    0.479E-01
RMM:  78    -0.553792546005E+01   -0.23445E-02   -0.31724E-04    48   0.227E-01    0.472E-01
RMM:  79    -0.553771486108E+01    0.21060E-03   -0.69719E-05    50   0.669E-02    0.473E-01
RMM:  80    -0.553760471095E+01    0.11015E-03   -0.72600E-06    45   0.310E-02    0.472E-01
RMM:  81    -0.553043418848E+01    0.71705E-02   -0.98162E-03    48   0.100E+00    0.417E-01
RMM:  82    -0.553769884268E+01   -0.72647E-02   -0.42318E-03    48   0.714E-01    0.383E-01
RMM:  83    -0.553709342700E+01    0.60542E-03   -0.43099E-04    48   0.265E-01    0.369E-01
RMM:  84    -0.553657947708E+01    0.51395E-03   -0.67694E-04    49   0.238E-01    0.339E-01
RMM:  85    -0.553828784620E+01   -0.17084E-02   -0.24116E-03    48   0.520E-01    0.311E-01
RMM:  86    -0.553742127115E+01    0.86658E-03   -0.22242E-03    50   0.446E-01    0.319E-01
RMM:  87    -0.553799874930E+01   -0.57748E-03   -0.33765E-03    49   0.589E-01    0.309E-01
RMM:  88    -0.553894142245E+01   -0.94267E-03   -0.21837E-04    48   0.196E-01    0.308E-01
RMM:  89    -0.553769162077E+01    0.12498E-02   -0.41857E-04    48   0.226E-01    0.317E-01
RMM:  90    -0.553808478421E+01   -0.39316E-03   -0.26140E-05    47   0.673E-02    0.314E-01
RMM:  91    -0.553838428333E+01   -0.29950E-03   -0.50720E-04    48   0.212E-01    0.336E-01
RMM:  92    -0.553719868269E+01    0.11856E-02   -0.10138E-03    48   0.319E-01    0.263E-01
RMM:  93    -0.553458288527E+01    0.26158E-02   -0.19536E-03    48   0.440E-01    0.364E-01
RMM:  94    -0.553508435442E+01   -0.50147E-03   -0.80642E-04    49   0.279E-01    0.360E-01
RMM:  95    -0.553158630635E+01    0.34980E-02   -0.42698E-03    48   0.612E-01    0.297E-01
RMM:  96    -0.553474228058E+01   -0.31560E-02   -0.19819E-03    49   0.458E-01    0.251E-01
RMM:  97    -0.553135715755E+01    0.33851E-02   -0.76339E-03    48   0.887E-01    0.328E-01
RMM:  98    -0.553549504746E+01   -0.41379E-02   -0.10835E-03    48   0.395E-01    0.243E-01
RMM:  99    -0.553762817231E+01   -0.21331E-02   -0.47107E-04    48   0.259E-01    0.252E-01
RMM: 100    -0.553736882490E+01    0.25935E-03   -0.12383E-03    48   0.340E-01
   8 F= -.55419126E+01 E0= -.55399964E+01  d E =-.224811E+01  mag=    -1.0588
 curvature:  -0.00 expect dE=-0.237E-07 dE for cont linesearch -0.162E-07
 ZBRENT: increasing intervall
 opt :   1.0005  next Energy=    -5.541913 (dE=-0.225E+01)
 bond charge predicted
       N       E                     dE             d eps       ncg     rms          rms(c)
DAV:   1    -0.553748670365E+01    0.14147E-03   -0.36031E-04    84   0.120E-01    0.313E-01
RMM:   2    -0.553795521552E+01   -0.46851E-03   -0.76617E-03    51   0.719E-01    0.215E+00
RMM:   3    -0.552774242317E+01    0.10213E-01   -0.28426E-03    48   0.571E-01    0.666E-01
RMM:   4    -0.553351791772E+01   -0.57755E-02   -0.39304E-04    51   0.198E-01    0.649E-01
RMM:   5    -0.553495649021E+01   -0.14386E-02   -0.28611E-05    46   0.649E-02    0.792E-01
RMM:   6    -0.553294207433E+01    0.20144E-02   -0.20332E-04    48   0.123E-01    0.887E-01
RMM:   7    -0.553467513382E+01   -0.17331E-02   -0.59214E-04    48   0.211E-01    0.529E-01
RMM:   8    -0.553719286947E+01   -0.25177E-02   -0.59174E-04    48   0.244E-01    0.772E-01
[...]
RMM:  97    -0.554774406391E+01   -0.76802E-03   -0.41564E-04    50   0.225E-01    0.117E-01
RMM:  98    -0.554877255217E+01   -0.10285E-02   -0.21174E-04    50   0.148E-01    0.659E-02
RMM:  99    -0.554837659807E+01    0.39595E-03   -0.13962E-03    50   0.374E-01    0.739E-02
RMM: 100    -0.554919955657E+01   -0.82296E-03   -0.24652E-04    47   0.199E-01
  18 F= -.55537478E+01 E0= -.55511596E+01  d E =-.225994E+01  mag=    -1.0286
 curvature:  -0.28 expect dE=-0.294E-04 dE for cont linesearch -0.249E-04
 ZBRENT: increasing intervall
 opt :   1.5236  next Energy=    -5.553798 (dE=-0.226E+01)
 bond charge predicted
       N       E                     dE             d eps       ncg     rms          rms(c)
DAV:   1    -0.554594451908E+01    0.24321E-02   -0.62109E-03    48   0.806E-01    0.526E-02
RMM:   2    -0.554840937194E+01   -0.24649E-02   -0.39795E-04    48   0.192E-01    0.144E-01
RMM:   3    -0.554848702262E+01   -0.77651E-04   -0.33554E-05    46   0.755E-02    0.117E-01
RMM:   4    -0.554855938437E+01   -0.72362E-04   -0.98868E-06    46   0.279E-02    0.112E-01
RMM:   5    -0.554855197616E+01    0.74082E-05   -0.44846E-05    49   0.651E-02    0.909E-02
RMM:   6    -0.554911730853E+01   -0.56533E-03   -0.10423E-04    47   0.120E-01    0.663E-02
RMM:   7    -0.554934992612E+01   -0.23262E-03   -0.24393E-05    46   0.591E-02    0.701E-02
RMM:   8    -0.554927406384E+01    0.75862E-04   -0.24169E-05    47   0.489E-02    0.658E-02
RMM:   9    -0.554943224306E+01   -0.15818E-03   -0.58517E-06    42   0.330E-02    0.652E-02
RMM:  10    -0.554890098320E+01    0.53126E-03   -0.76705E-05    47   0.963E-02    0.694E-02
RMM:  11    -0.554927281110E+01   -0.37183E-03   -0.37576E-05    47   0.784E-02    0.641E-02
RMM:  12    -0.554931210340E+01   -0.39292E-04   -0.57206E-05    47   0.781E-02    0.755E-02
RMM:  13    -0.554929192907E+01    0.20174E-04   -0.15359E-05    45   0.447E-02    0.757E-02
RMM:  14    -0.554921869600E+01    0.73233E-04   -0.73143E-06    42   0.284E-02    0.764E-02
RMM:  15    -0.554922679460E+01   -0.80986E-05   -0.22495E-05    45   0.461E-02    0.748E-02
RMM:  16    -0.554912316387E+01    0.10363E-03   -0.63934E-06    40   0.283E-02    0.752E-02
RMM:  17    -0.554910279989E+01    0.20364E-04   -0.77561E-07    31   0.962E-03    0.754E-02
RMM:  18    -0.554891590107E+01    0.18690E-03   -0.91233E-06    39   0.272E-02    0.742E-02
RMM:  19    -0.554894164782E+01   -0.25747E-04   -0.16264E-05    42   0.308E-02    0.742E-02
RMM:  20    -0.554892331133E+01    0.18336E-04   -0.12270E-04    48   0.812E-02    0.752E-02
RMM:  21    -0.554873627935E+01    0.18703E-03   -0.23586E-04    48   0.107E-01    0.795E-02
RMM:  22    -0.554891252348E+01   -0.17624E-03   -0.16739E-05    44   0.407E-02    0.784E-02
RMM:  23    -0.554894751298E+01   -0.34989E-04   -0.11056E-05    42   0.268E-02    0.781E-02
RMM:  24    -0.554889684286E+01    0.50670E-04   -0.23357E-05    45   0.366E-02    0.779E-02
RMM:  25    -0.554881375123E+01    0.83092E-04   -0.13665E-04    47   0.881E-02    0.754E-02
RMM:  26    -0.554877336414E+01    0.40387E-04   -0.15163E-04    50   0.941E-02    0.753E-02
RMM:  27    -0.554835132786E+01    0.42204E-03   -0.21003E-03    48   0.331E-01    0.806E-02
RMM:  28    -0.554887765635E+01   -0.52633E-03   -0.56807E-04    47   0.186E-01    0.781E-02
RMM:  29    -0.554914552558E+01   -0.26787E-03   -0.44391E-05    46   0.788E-02    0.796E-02
RMM:  30    -0.554913523814E+01    0.10287E-04   -0.96521E-06    46   0.259E-02    0.801E-02
RMM:  31    -0.554920788961E+01   -0.72651E-04   -0.78785E-06    44   0.301E-02    0.792E-02
RMM:  32    -0.554869660967E+01    0.51128E-03   -0.10789E-04    48   0.100E-01    0.824E-02
RMM:  33    -0.554862682040E+01    0.69789E-04   -0.70388E-05    48   0.676E-02    0.814E-02
RMM:  34    -0.554869698003E+01   -0.70160E-04   -0.67901E-04    48   0.203E-01    0.771E-02
RMM:  35    -0.554901872413E+01   -0.32174E-03   -0.45886E-05    48   0.669E-02    0.759E-02
RMM:  36    -0.554913296496E+01   -0.11424E-03   -0.34260E-05    48   0.523E-02    0.747E-02
RMM:  37    -0.554911105864E+01    0.21906E-04   -0.10962E-05    38   0.202E-02    0.752E-02
RMM:  38    -0.554867939374E+01    0.43166E-03   -0.15298E-04    48   0.121E-01    0.767E-02
RMM:  39    -0.554925996661E+01   -0.58057E-03   -0.19695E-04    48   0.139E-01    0.689E-02
RMM:  40    -0.554916914719E+01    0.90819E-04   -0.10501E-03    50   0.196E-01    0.671E-02
RMM:  41    -0.554938880399E+01   -0.21966E-03   -0.10919E-04    48   0.116E-01    0.679E-02
RMM:  42    -0.554894454390E+01    0.44426E-03   -0.34735E-03    50   0.346E-01    0.736E-02
RMM:  43    -0.554821984993E+01    0.72469E-03   -0.59909E-03    51   0.486E-01    0.781E-02
RMM:  44    -0.554968416315E+01   -0.14643E-02   -0.69192E-04    50   0.186E-01    0.737E-02
RMM:  45    -0.554997154763E+01   -0.28738E-03   -0.12122E-04    51   0.970E-02    0.743E-02
RMM:  46    -0.554995676553E+01    0.14782E-04   -0.10576E-04    49   0.648E-02    0.758E-02
RMM:  47    -0.554883794720E+01    0.11188E-02   -0.34765E-03    49   0.452E-01    0.105E-01
RMM:  48    -0.554774266198E+01    0.10953E-02   -0.96497E-03    51   0.618E-01    0.192E-01
RMM:  49    -0.554988189997E+01   -0.21392E-02   -0.11715E-03    51   0.215E-01    0.198E-01
RMM:  50    -0.554986656911E+01    0.15331E-04   -0.41800E-04    52   0.973E-02    0.208E-01
RMM:  51    -0.554982354189E+01    0.43027E-04   -0.33712E-05    49   0.402E-02    0.210E-01
RMM:  52    -0.554879882831E+01    0.10247E-02   -0.10386E-03    49   0.283E-01    0.254E-01
RMM:  53    -0.554917329219E+01   -0.37446E-03   -0.22922E-04    49   0.118E-01    0.239E-01
RMM:  54    -0.554881179490E+01    0.36150E-03   -0.17231E-04    48   0.121E-01    0.262E-01
RMM:  55    -0.554897541981E+01   -0.16362E-03   -0.29733E-04    48   0.130E-01    0.291E-01
RMM:  56    -0.554868341853E+01    0.29200E-03   -0.85342E-04    50   0.165E-01    0.271E-01
RMM:  57    -0.554067115270E+01    0.80123E-02   -0.44002E-02    50   0.106E+00    0.247E-01
RMM:  58    -0.554709448681E+01   -0.64233E-02   -0.51512E-03    50   0.357E-01    0.188E-01
RMM:  59    -0.554834916629E+01   -0.12547E-02   -0.47542E-04    54   0.141E-01    0.181E-01
RMM:  60    -0.554890943495E+01   -0.56027E-03   -0.52514E-04    48   0.160E-01    0.177E-01
RMM:  61    -0.554871164105E+01    0.19779E-03   -0.81312E-05    47   0.905E-02    0.175E-01
RMM:  62    -0.554725326366E+01    0.14584E-02   -0.89557E-03    49   0.592E-01    0.227E-01
RMM:  63    -0.554878067404E+01   -0.15274E-02   -0.46344E-03    51   0.238E-01    0.240E-01
RMM:  64    -0.554772885244E+01    0.10518E-02   -0.18010E-03    48   0.363E-01    0.210E-01
RMM:  65    -0.554824401622E+01   -0.51516E-03   -0.59200E-04    49   0.218E-01    0.167E-01
RMM:  66    -0.554844477032E+01   -0.20075E-03   -0.81807E-04    49   0.198E-01    0.152E-01
RMM:  67    -0.554925615167E+01   -0.81138E-03   -0.87702E-04    50   0.191E-01    0.140E-01
RMM:  68    -0.554913356547E+01    0.12259E-03   -0.35283E-04    50   0.118E-01    0.142E-01
RMM:  69    -0.554895037225E+01    0.18319E-03   -0.56426E-04    50   0.152E-01    0.148E-01
RMM:  70    -0.554554790255E+01    0.34025E-02   -0.82665E-03    50   0.602E-01    0.165E-01
RMM:  71    -0.554893226277E+01   -0.33844E-02   -0.61270E-04    49   0.253E-01    0.154E-01
RMM:  72    -0.554652793038E+01    0.24043E-02   -0.72789E-03    50   0.533E-01    0.170E-01
RMM:  73    -0.554824293475E+01   -0.17150E-02   -0.23506E-03    51   0.197E-01    0.169E-01
RMM:  74    -0.554858325191E+01   -0.34032E-03   -0.38422E-05    47   0.657E-02    0.169E-01
RMM:  75    -0.554855363006E+01    0.29622E-04   -0.87458E-05    48   0.391E-02    0.168E-01
RMM:  76    -0.554858636513E+01   -0.32735E-04   -0.42615E-06    41   0.206E-02    0.165E-01
RMM:  77    -0.554831988704E+01    0.26648E-03   -0.68682E-03    50   0.397E-01    0.125E-01
RMM:  78    -0.554826012162E+01    0.59765E-04   -0.12321E-03    48   0.333E-01    0.146E-01
RMM:  79    -0.554851378347E+01   -0.25366E-03   -0.80586E-04    49   0.197E-01    0.139E-01
RMM:  80    -0.554886807391E+01   -0.35429E-03   -0.31130E-04    48   0.136E-01    0.125E-01
RMM:  81    -0.554914933010E+01   -0.28126E-03   -0.77307E-04    50   0.146E-01    0.131E-01
RMM:  82    -0.554801958972E+01    0.11297E-02   -0.18640E-03    50   0.314E-01    0.139E-01
RMM:  83    -0.554820492275E+01   -0.18533E-03   -0.44841E-04    48   0.191E-01    0.124E-01
RMM:  84    -0.554854134856E+01   -0.33643E-03   -0.25400E-03    50   0.392E-01    0.155E-01
RMM:  85    -0.554907933969E+01   -0.53799E-03   -0.92156E-04    50   0.183E-01    0.147E-01
RMM:  86    -0.554915206349E+01   -0.72724E-04   -0.40290E-05    45   0.868E-02    0.145E-01
RMM:  87    -0.554760543126E+01    0.15466E-02   -0.92533E-03    50   0.563E-01    0.105E-01
RMM:  88    -0.554850652716E+01   -0.90110E-03   -0.82389E-03    50   0.356E-01    0.744E-02
RMM:  89    -0.554865846774E+01   -0.15194E-03   -0.78274E-03    51   0.427E-01    0.856E-02
RMM:  90    -0.554947815786E+01   -0.81969E-03   -0.29565E-03    51   0.223E-01    0.692E-02
RMM:  91    -0.554946938062E+01    0.87772E-05   -0.23478E-03    54   0.246E-01    0.753E-02
RMM:  92    -0.554896922813E+01    0.50015E-03   -0.67267E-03    51   0.358E-01    0.925E-02
RMM:  93    -0.554981754538E+01   -0.84832E-03   -0.21223E-04    48   0.178E-01    0.774E-02
RMM:  94    -0.554965563655E+01    0.16191E-03   -0.12443E-04    48   0.116E-01    0.784E-02
RMM:  95    -0.554967329983E+01   -0.17663E-04   -0.12307E-04    50   0.814E-02    0.800E-02
RMM:  96    -0.554894436483E+01    0.72893E-03   -0.11930E-03    50   0.240E-01    0.832E-02
RMM:  97    -0.554967269779E+01   -0.72833E-03   -0.41411E-04    48   0.177E-01    0.895E-02
RMM:  98    -0.554878325698E+01    0.88944E-03   -0.12186E-03    48   0.318E-01    0.918E-02
RMM:  99    -0.554951568305E+01   -0.73243E-03   -0.47673E-04    49   0.165E-01    0.902E-02
RMM: 100    -0.554938926891E+01    0.12641E-03   -0.47169E-04    48   0.221E-01
  19 F= -.55539420E+01 E0= -.55516720E+01  d E =-.226014E+01  mag=    -1.0298
 curvature:  -0.56 expect dE=-0.626E-04 dE for cont linesearch -0.525E-04
 ZBRENT:  can not reach accuracy
 opt :   0.0000  next Energy=     0.000000 (dE= 0.329E+01)
 bond charge predicted
       N       E                     dE             d eps       ncg     rms          rms(c)
DAV:   1    -0.552811250122E+01    0.21403E-01   -0.19091E-01    48   0.455E+00    0.207E-01
RMM:   2    -0.553879540795E+01   -0.10683E-01   -0.43656E-03    48   0.714E-01    0.228E-01
RMM:   3    -0.554525189963E+01   -0.64565E-02   -0.64978E-04    48   0.254E-01    0.116E-01
RMM:   4    -0.554763875308E+01   -0.23869E-02   -0.15564E-04    50   0.136E-01    0.159E-01
RMM:   5    -0.554724996304E+01    0.38879E-03   -0.75786E-05    51   0.954E-02    0.189E-01
RMM:   6    -0.554740745393E+01   -0.15749E-03   -0.93728E-05    47   0.111E-01    0.141E-01
RMM:   7    -0.554692284301E+01    0.48461E-03   -0.11316E-04    47   0.106E-01    0.125E-01
RMM:   8    -0.554753181372E+01   -0.60897E-03   -0.26391E-04    48   0.192E-01    0.139E-01
RMM:   9    -0.554749882345E+01    0.32990E-04   -0.55939E-05    48   0.766E-02    0.120E-01
RMM:  10    -0.554743107092E+01    0.67753E-04   -0.42432E-05    48   0.744E-02    0.119E-01
RMM:  11    -0.554781184170E+01   -0.38077E-03   -0.76568E-05    47   0.995E-02    0.113E-01
RMM:  12    -0.554798524582E+01   -0.17340E-03   -0.20119E-04    48   0.119E-01    0.105E-01
RMM:  13    -0.554757205562E+01    0.41319E-03   -0.21144E-04    49   0.156E-01    0.108E-01
RMM:  14    -0.554808906587E+01   -0.51701E-03   -0.73359E-05    47   0.108E-01    0.104E-01
RMM:  15    -0.554820139895E+01   -0.11233E-03   -0.27018E-04    48   0.163E-01    0.972E-02
RMM:  16    -0.554825037437E+01   -0.48975E-04   -0.22526E-05    46   0.641E-02    0.977E-02
RMM:  17    -0.554830524628E+01   -0.54872E-04   -0.27642E-05    45   0.502E-02    0.954E-02
RMM:  18    -0.554762610059E+01    0.67915E-03   -0.10727E-03    48   0.336E-01    0.924E-02
RMM:  19    -0.554841555564E+01   -0.78946E-03   -0.19096E-04    48   0.161E-01    0.889E-02
RMM:  20    -0.554837436114E+01    0.41195E-04   -0.32886E-04    49   0.168E-01    0.866E-02
RMM:  21    -0.554858022794E+01   -0.20587E-03   -0.26937E-04    49   0.157E-01    0.915E-02
RMM:  22    -0.554856359214E+01    0.16636E-04   -0.11384E-04    50   0.114E-01    0.839E-02
RMM:  23    -0.554822721144E+01    0.33638E-03   -0.72735E-04    49   0.200E-01    0.113E-01
RMM:  24    -0.554765948035E+01    0.56773E-03   -0.20303E-03    49   0.416E-01    0.107E-01
RMM:  25    -0.554545666515E+01    0.22028E-02   -0.39502E-03    48   0.589E-01    0.755E-02
RMM:  26    -0.554745937188E+01   -0.20027E-02   -0.26539E-03    49   0.492E-01    0.685E-02
RMM:  27    -0.554838223301E+01   -0.92286E-03   -0.13332E-03    50   0.354E-01    0.583E-02
RMM:  28    -0.554587627476E+01    0.25060E-02   -0.39336E-03    49   0.584E-01    0.128E-01
RMM:  29    -0.554943603821E+01   -0.35598E-02   -0.39932E-04    48   0.275E-01    0.120E-01
RMM:  30    -0.554896784489E+01    0.46819E-03   -0.39493E-04    48   0.239E-01    0.749E-02
RMM:  31    -0.555034091518E+01   -0.13731E-02   -0.76928E-04    48   0.315E-01    0.659E-02
RMM:  32    -0.555056073160E+01   -0.21982E-03   -0.98365E-05    48   0.113E-01    0.551E-02
RMM:  33    -0.555070460038E+01   -0.14387E-03   -0.42550E-05    49   0.691E-02    0.629E-02
RMM:  34    -0.554975143519E+01    0.95317E-03   -0.46031E-04    48   0.241E-01    0.444E-02
RMM:  35    -0.555097216605E+01   -0.12207E-02   -0.85090E-05    47   0.107E-01    0.393E-02
RMM:  36    -0.555103499583E+01   -0.62830E-04   -0.42665E-05    48   0.616E-02    0.370E-02
RMM:  37    -0.555002849663E+01    0.10065E-02   -0.57050E-04    48   0.252E-01    0.435E-02
RMM:  38    -0.555030740870E+01   -0.27891E-03   -0.29873E-04    49   0.178E-01    0.458E-02
RMM:  39    -0.555034256918E+01   -0.35160E-04   -0.26464E-04    51   0.154E-01    0.478E-02
RMM:  40    -0.555106745768E+01   -0.72489E-03   -0.50805E-05    47   0.998E-02    0.413E-02
RMM:  41    -0.555115448135E+01   -0.87024E-04   -0.74780E-05    47   0.951E-02    0.409E-02
RMM:  42    -0.555114487945E+01    0.96019E-05   -0.80651E-05    47   0.868E-02    0.355E-02
RMM:  43    -0.555101456086E+01    0.13032E-03   -0.41690E-05    47   0.856E-02    0.392E-02
RMM:  44    -0.555109425502E+01   -0.79694E-04   -0.25339E-06    33   0.221E-02    0.395E-02
RMM:  45    -0.555101372077E+01    0.80534E-04   -0.14963E-05    46   0.397E-02    0.432E-02
RMM:  46    -0.555105812575E+01   -0.44405E-04   -0.16945E-05    43   0.421E-02    0.520E-02
RMM:  47    -0.555087283392E+01    0.18529E-03   -0.84883E-05    47   0.978E-02    0.528E-02
RMM:  48    -0.555117791542E+01   -0.30508E-03   -0.23790E-05    44   0.642E-02    0.517E-02
RMM:  49    -0.555113332247E+01    0.44593E-04   -0.14983E-04    47   0.133E-01    0.506E-02
RMM:  50    -0.555110559139E+01    0.27731E-04   -0.63385E-05    45   0.892E-02    0.445E-02
RMM:  51    -0.555062768676E+01    0.47790E-03   -0.34265E-04    48   0.188E-01    0.425E-02
RMM:  52    -0.554994475217E+01    0.68293E-03   -0.97830E-04    48   0.298E-01    0.644E-02
RMM:  53    -0.555101005160E+01   -0.10653E-02   -0.47649E-04    48   0.254E-01    0.690E-02
RMM:  54    -0.555095280074E+01    0.57251E-04   -0.24510E-04    47   0.145E-01    0.623E-02
RMM:  55    -0.555116567522E+01   -0.21287E-03   -0.26545E-05    47   0.667E-02    0.628E-02
RMM:  56    -0.555110267557E+01    0.63000E-04   -0.21809E-05    47   0.546E-02    0.658E-02
RMM:  57    -0.555063411355E+01    0.46856E-03   -0.21814E-04    47   0.147E-01    0.404E-02
RMM:  58    -0.555115034004E+01   -0.51623E-03   -0.12687E-04    48   0.136E-01    0.362E-02
RMM:  59    -0.555106761935E+01    0.82721E-04   -0.31069E-05    47   0.653E-02    0.384E-02
RMM:  60    -0.555099411316E+01    0.73506E-04   -0.55174E-04    48   0.245E-01    0.408E-02
RMM:  61    -0.554879632269E+01    0.21978E-02   -0.35395E-03    48   0.535E-01    0.787E-02
RMM:  62    -0.555062871936E+01   -0.18324E-02   -0.30184E-04    48   0.204E-01    0.533E-02
RMM:  63    -0.555107281206E+01   -0.44409E-03   -0.81030E-05    48   0.110E-01    0.503E-02
RMM:  64    -0.555114198771E+01   -0.69176E-04   -0.57196E-05    47   0.734E-02    0.467E-02
RMM:  65    -0.555105417382E+01    0.87814E-04   -0.64727E-05    47   0.774E-02    0.487E-02
RMM:  66    -0.554960008786E+01    0.14541E-02   -0.30043E-03    48   0.520E-01    0.611E-02
RMM:  67    -0.555011068009E+01   -0.51059E-03   -0.15149E-03    48   0.399E-01    0.545E-02
RMM:  68    -0.555067801973E+01   -0.56734E-03   -0.69035E-04    48   0.275E-01    0.550E-02
RMM:  69    -0.555101714282E+01   -0.33912E-03   -0.74095E-05    47   0.991E-02    0.550E-02
RMM:  70    -0.555077421038E+01    0.24293E-03   -0.10436E-04    47   0.116E-01    0.577E-02
RMM:  71    -0.555089759674E+01   -0.12339E-03   -0.52609E-05    47   0.770E-02    0.591E-02
RMM:  72    -0.555109791178E+01   -0.20032E-03   -0.56495E-05    47   0.935E-02    0.615E-02
RMM:  73    -0.554993051367E+01    0.11674E-02   -0.55690E-04    48   0.249E-01    0.639E-02
RMM:  74    -0.555052041145E+01   -0.58990E-03   -0.77707E-04    48   0.250E-01    0.552E-02
RMM:  75    -0.555075595729E+01   -0.23555E-03   -0.64464E-05    48   0.106E-01    0.560E-02
RMM:  76    -0.555074601664E+01    0.99406E-05   -0.24033E-04    47   0.134E-01    0.545E-02
RMM:  77    -0.555064366540E+01    0.10235E-03   -0.37452E-04    48   0.161E-01    0.510E-02
RMM:  78    -0.555087280065E+01   -0.22914E-03   -0.22528E-04    47   0.160E-01    0.530E-02
RMM:  79    -0.555070224314E+01    0.17056E-03   -0.33889E-04    47   0.170E-01    0.606E-02
RMM:  80    -0.555089630601E+01   -0.19406E-03   -0.19575E-05    44   0.527E-02    0.601E-02
RMM:  81    -0.555091701000E+01   -0.20704E-04   -0.17787E-04    47   0.143E-01    0.641E-02
RMM:  82    -0.555009425712E+01    0.82275E-03   -0.12675E-03    48   0.308E-01    0.617E-02
RMM:  83    -0.555099380686E+01   -0.89955E-03   -0.95836E-05    48   0.118E-01    0.621E-02
RMM:  84    -0.555102325453E+01   -0.29448E-04   -0.42204E-05    47   0.847E-02    0.631E-02
RMM:  85    -0.555112585562E+01   -0.10260E-03   -0.19899E-05    47   0.466E-02    0.587E-02
RMM:  86    -0.555068909602E+01    0.43676E-03   -0.85270E-04    48   0.229E-01    0.588E-02
RMM:  87    -0.554724066727E+01    0.34484E-02   -0.86113E-03    48   0.759E-01    0.106E-01
RMM:  88    -0.555110649951E+01   -0.38658E-02   -0.40615E-04    48   0.255E-01    0.732E-02
RMM:  89    -0.555092556776E+01    0.18093E-03   -0.33820E-04    48   0.188E-01    0.691E-02
RMM:  90    -0.555117500946E+01   -0.24944E-03   -0.94082E-05    48   0.104E-01    0.618E-02
RMM:  91    -0.555116507366E+01    0.99358E-05   -0.34570E-05    46   0.770E-02    0.628E-02
RMM:  92    -0.555108641421E+01    0.78659E-04   -0.33241E-04    48   0.143E-01    0.747E-02
RMM:  93    -0.555112650157E+01   -0.40087E-04   -0.31645E-04    48   0.208E-01    0.672E-02
RMM:  94    -0.555053365117E+01    0.59285E-03   -0.51980E-04    47   0.251E-01    0.672E-02
RMM:  95    -0.555107954038E+01   -0.54589E-03   -0.98781E-05    47   0.119E-01    0.596E-02
RMM:  96    -0.555081202337E+01    0.26752E-03   -0.20168E-04    47   0.164E-01    0.675E-02
RMM:  97    -0.554919018864E+01    0.16218E-02   -0.37129E-03    48   0.608E-01    0.120E-01
RMM:  98    -0.555081596343E+01   -0.16258E-02   -0.77572E-04    49   0.273E-01    0.126E-01
RMM:  99    -0.555114818771E+01   -0.33222E-03   -0.97712E-05    49   0.106E-01    0.126E-01
RMM: 100    -0.554224338861E+01    0.89048E-02   -0.15238E-02    48   0.119E+00
  20 F= -.55467704E+01 E0= -.55448595E+01  d E =-.225297E+01  mag=    -1.0180
 curvature:   0.00 expect dE= 0.148-322 dE for cont linesearch  0.988-323
 ZBRENT: fatal error: bracketing interval incorrect
     please rerun with smaller EDIFF, or copy CONTCAR
     to POSCAR and continue
