 running on   24 total cores
 distrk:  each k-point on   24 cores,    1 groups
 distr:  one band on    4 cores,    6 groups
 using from now: INCAR     
 vasp.5.4.4.18Apr17-6-g9f103f2a35 (build May 21 2019 18:55:53) complex          
  
 POSCAR found type information on POSCAR  C  O  Li
 POSCAR found :  3 types and       4 ions
 WARNING: type information on POSCAR and POTCAR are incompatible
 POTCAR overwrites the type information in POSCAR
 typ   1 type information:  C  O 
 WARNING: type information on POSCAR and POTCAR are incompatible
 POTCAR overwrites the type information in POSCAR
 typ   2 type information:  O  C 
 WARNING: type information on POSCAR and POTCAR are incompatible
 POTCAR overwrites the type information in POSCAR
 typ   3 type information:  Li H 

 ----------------------------------------------------------------------------- 
|                                                                             |
|  ADVICE TO THIS USER RUNNING 'VASP/VAMP'   (HEAR YOUR MASTER'S VOICE ...):  |
|                                                                             |
|      You have a (more or less) 'small supercell' and for smaller cells      |
|      it is recommended  to use the reciprocal-space projection scheme!      |
|      The real space optimization is not  efficient for small cells and it   |
|      is also less accurate ...                                              |
|      Therefore set LREAL=.FALSE. in the  INCAR file                         |
|                                                                             |
 ----------------------------------------------------------------------------- 

 LDA part: xc-table for Pade appr. of Perdew
 POSCAR found type information on POSCAR  C  O  Li
 POSCAR found :  3 types and       4 ions
 POSCAR, INCAR and KPOINTS ok, starting setup
 FFT: planning ...
 WAVECAR not read
 WARNING: random wavefunctions but no delay for mixing, default for NELMDL
 entering main loop
       N       E                     dE             d eps       ncg     rms          rms(c)
DAV:   1     0.128095528057E+03    0.12810E+03   -0.39604E+03    60   0.691E+02
DAV:   2     0.493457462013E+01   -0.12316E+03   -0.11907E+03    84   0.163E+02
DAV:   3    -0.162918959115E+02   -0.21226E+02   -0.21022E+02    72   0.104E+02
DAV:   4    -0.176230703565E+02   -0.13312E+01   -0.12883E+01    72   0.241E+01
DAV:   5    -0.176353437460E+02   -0.12273E-01   -0.12155E-01    84   0.206E+00    0.209E+01
RMM:   6    -0.172581592194E+02    0.37718E+00   -0.23045E+00    50   0.119E+01    0.193E+01
RMM:   7    -0.163952211441E+02    0.86294E+00   -0.40268E-01    48   0.632E+00    0.105E+01
RMM:   8    -0.159084499086E+02    0.48677E+00   -0.85034E-01    48   0.759E+00    0.333E+00
RMM:   9    -0.160249043086E+02   -0.11645E+00   -0.15429E-01    50   0.399E+00    0.386E+00
RMM:  10    -0.161767743109E+02   -0.15187E+00   -0.12165E-01    49   0.220E+00    0.627E+00
RMM:  11    -0.161713039974E+02    0.54703E-02   -0.88508E-03    48   0.890E-01    0.627E+00
RMM:  12    -0.161232501672E+02    0.48054E-01   -0.31372E-03    48   0.406E-01    0.634E+00
RMM:  13    -0.162618024747E+02   -0.13855E+00   -0.18508E-01    48   0.260E+00    0.524E+00
RMM:  14    -0.158889948234E+02    0.37281E+00   -0.88255E-01    48   0.586E+00    0.371E+00
RMM:  15    -0.120633632210E+02    0.38256E+01   -0.42725E+00    48   0.165E+01    0.501E+00
RMM:  16    -0.117908314193E+02    0.27253E+00   -0.26278E-01    50   0.325E+00    0.486E+00
RMM:  17    -0.113973014155E+02    0.39353E+00   -0.58631E-02    49   0.176E+00    0.504E+00
RMM:  18    -0.122415901305E+02   -0.84429E+00   -0.23608E-01    48   0.377E+00    0.420E+00
RMM:  19    -0.134964228534E+02   -0.12548E+01   -0.38017E-01    48   0.445E+00    0.338E+00
RMM:  20    -0.144474335460E+02   -0.95101E+00   -0.45539E-01    49   0.438E+00    0.281E+00
RMM:  21    -0.130805004622E+02    0.13669E+01   -0.10676E+00    49   0.562E+00    0.264E+00
RMM:  22    -0.125689071537E+02    0.51159E+00   -0.27837E-01    48   0.277E+00    0.245E+00
RMM:  23    -0.147417643904E+02   -0.21729E+01   -0.27794E+00    48   0.102E+01    0.160E+00
RMM:  24    -0.147817603373E+02   -0.39996E-01   -0.21438E-01    53   0.243E+00    0.215E+00
RMM:  25    -0.150857777401E+02   -0.30402E+00   -0.24663E-01    48   0.337E+00    0.316E+00
RMM:  26    -0.151259892906E+02   -0.40212E-01   -0.15783E-02    51   0.610E-01    0.327E+00
RMM:  27    -0.152094954016E+02   -0.83506E-01   -0.32849E-03    48   0.435E-01    0.353E+00
RMM:  28    -0.145589908724E+02    0.65050E+00   -0.77129E-02    48   0.203E+00    0.264E+00
RMM:  29    -0.145196071393E+02    0.39384E-01   -0.59685E-02    48   0.176E+00    0.235E+00
RMM:  30    -0.143441652641E+02    0.17544E+00   -0.84991E-03    49   0.851E-01    0.235E+00
RMM:  31    -0.142917777849E+02    0.52387E-01   -0.68619E-03    48   0.660E-01    0.245E+00
RMM:  32    -0.141769827993E+02    0.11479E+00   -0.10579E-01    48   0.240E+00    0.182E+00
RMM:  33    -0.133707418857E+02    0.80624E+00   -0.22996E-01    48   0.329E+00    0.190E+00
RMM:  34    -0.132236174533E+02    0.14712E+00   -0.23774E-02    49   0.106E+00    0.189E+00
RMM:  35    -0.135780260314E+02   -0.35441E+00   -0.31878E-02    48   0.105E+00    0.184E+00
RMM:  36    -0.150728337477E+02   -0.14948E+01   -0.25088E-01    48   0.284E+00    0.162E+00
RMM:  37    -0.157895456179E+02   -0.71671E+00   -0.19523E-01    48   0.220E+00    0.137E+00
RMM:  38    -0.157617672056E+02    0.27778E-01   -0.21166E-02    48   0.105E+00    0.938E-01
RMM:  39    -0.163898700907E+02   -0.62810E+00   -0.25788E-01    48   0.231E+00    0.567E-01
RMM:  40    -0.166501009265E+02   -0.26023E+00   -0.46229E-01    48   0.252E+00    0.317E-01
RMM:  41    -0.167430683584E+02   -0.92967E-01   -0.33964E-01    49   0.188E+00    0.583E-01
RMM:  42    -0.167776802557E+02   -0.34612E-01   -0.14004E-01    51   0.109E+00    0.606E-01
RMM:  43    -0.167740448028E+02    0.36355E-02   -0.11439E-02    50   0.460E-01    0.856E-01
RMM:  44    -0.168371546272E+02   -0.63110E-01   -0.18448E-01    48   0.116E+00    0.896E-01
RMM:  45    -0.168393311364E+02   -0.21765E-02   -0.16818E-02    51   0.316E-01    0.103E+00
RMM:  46    -0.168048404643E+02    0.34491E-01   -0.92001E-02    48   0.117E+00    0.976E-01
RMM:  47    -0.167601618618E+02    0.44679E-01   -0.10201E-01    48   0.142E+00    0.846E-01
RMM:  48    -0.166587158518E+02    0.10145E+00   -0.23279E-01    49   0.179E+00    0.767E-01
RMM:  49    -0.164750849249E+02    0.18363E+00   -0.61654E-01    49   0.292E+00    0.683E-01
RMM:  50    -0.164597406828E+02    0.15344E-01   -0.43753E-02    50   0.735E-01    0.644E-01
RMM:  51    -0.164438573890E+02    0.15883E-01   -0.16011E-02    48   0.584E-01    0.534E-01
RMM:  52    -0.163703899562E+02    0.73467E-01   -0.26264E-02    48   0.656E-01    0.575E-01
RMM:  53    -0.163083655857E+02    0.62024E-01   -0.30581E-02    49   0.678E-01    0.591E-01
RMM:  54    -0.163317098683E+02   -0.23344E-01   -0.25378E-03    46   0.220E-01    0.558E-01
RMM:  55    -0.164603150625E+02   -0.12861E+00   -0.52753E-02    48   0.946E-01    0.459E-01
RMM:  56    -0.166612688674E+02   -0.20095E+00   -0.34824E-01    49   0.195E+00    0.299E-01
RMM:  57    -0.166529305232E+02    0.83383E-02   -0.17643E-02    50   0.574E-01    0.352E-01
RMM:  58    -0.166507981303E+02    0.21324E-02   -0.30336E-03    48   0.184E-01    0.414E-01
RMM:  59    -0.166427732478E+02    0.80249E-02   -0.88562E-04    48   0.136E-01    0.435E-01
RMM:  60    -0.166824717184E+02   -0.39698E-01   -0.10472E-02    48   0.444E-01    0.460E-01
RMM:  61    -0.167670214198E+02   -0.84550E-01   -0.13738E-01    48   0.122E+00    0.477E-01
RMM:  62    -0.168001919718E+02   -0.33171E-01   -0.73413E-02    51   0.797E-01    0.497E-01
RMM:  63    -0.167950562219E+02    0.51357E-02   -0.65195E-03    48   0.270E-01    0.582E-01
RMM:  64    -0.167955181350E+02   -0.46191E-03   -0.27331E-04    42   0.575E-02    0.594E-01
RMM:  65    -0.167981759779E+02   -0.26578E-02   -0.29857E-04    41   0.714E-02    0.609E-01
RMM:  66    -0.168503126899E+02   -0.52137E-01   -0.14454E-01    48   0.126E+00    0.482E-01
RMM:  67    -0.168538638978E+02   -0.35512E-02   -0.11846E-02    50   0.401E-01    0.546E-01
RMM:  68    -0.168537946933E+02    0.69204E-04   -0.63523E-04    51   0.959E-02    0.569E-01
RMM:  69    -0.168543538676E+02   -0.55917E-03   -0.13318E-04    48   0.553E-02    0.563E-01
RMM:  70    -0.168552119689E+02   -0.85810E-03   -0.12471E-04    49   0.715E-02    0.548E-01
RMM:  71    -0.168598324056E+02   -0.46204E-02   -0.71456E-03    48   0.513E-01    0.439E-01
RMM:  72    -0.168591887448E+02    0.64366E-03   -0.36535E-04    48   0.216E-01    0.401E-01
RMM:  73    -0.168589531302E+02    0.23561E-03   -0.17074E-04    48   0.790E-02    0.390E-01
RMM:  74    -0.168595205326E+02   -0.56740E-03   -0.66933E-04    49   0.186E-01    0.317E-01
RMM:  75    -0.168593343065E+02    0.18623E-03   -0.19680E-04    48   0.125E-01    0.260E-01
RMM:  76    -0.168591284588E+02    0.20585E-03   -0.11778E-04    47   0.751E-02    0.247E-01
RMM:  77    -0.168590643523E+02    0.64107E-04   -0.16710E-05    41   0.368E-02    0.243E-01
RMM:  78    -0.168589920621E+02    0.72290E-04   -0.15018E-05    42   0.264E-02    0.250E-01
RMM:  79    -0.168589779898E+02    0.14072E-04   -0.28316E-06    36   0.155E-02    0.253E-01
RMM:  80    -0.168588818293E+02    0.96161E-04   -0.94948E-05    48   0.689E-02    0.219E-01
RMM:  81    -0.168598102499E+02   -0.92842E-03   -0.97134E-04    48   0.250E-01    0.151E-01
RMM:  82    -0.168604238422E+02   -0.61359E-03   -0.13124E-03    48   0.281E-01    0.198E-01
RMM:  83    -0.168606955590E+02   -0.27172E-03   -0.12372E-03    49   0.282E-01    0.277E-01
RMM:  84    -0.168605250736E+02    0.17049E-03   -0.10247E-03    48   0.284E-01    0.325E-01
RMM:  85    -0.168604783776E+02    0.46696E-04   -0.44627E-04    51   0.191E-01    0.369E-01
RMM:  86    -0.168607403709E+02   -0.26199E-03   -0.71216E-04    48   0.161E-01    0.312E-01
RMM:  87    -0.168608101577E+02   -0.69787E-04   -0.17076E-04    49   0.118E-01    0.278E-01
RMM:  88    -0.168608531590E+02   -0.43001E-04   -0.23415E-05    49   0.412E-02    0.272E-01
RMM:  89    -0.168608415129E+02    0.11646E-04   -0.10174E-04    48   0.741E-02    0.247E-01
RMM:  90    -0.168601845868E+02    0.65693E-03   -0.26175E-03    48   0.401E-01    0.119E-01
RMM:  91    -0.168597279742E+02    0.45661E-03   -0.15585E-03    48   0.330E-01    0.239E-01
RMM:  92    -0.168598725499E+02   -0.14458E-03   -0.34961E-04    50   0.165E-01    0.244E-01
RMM:  93    -0.168587476913E+02    0.11249E-02   -0.88866E-04    49   0.196E-01    0.271E-01
RMM:  94    -0.168528397744E+02    0.59079E-02   -0.40947E-03    48   0.449E-01    0.434E-01
RMM:  95    -0.168559701095E+02   -0.31303E-02   -0.50372E-04    48   0.229E-01    0.367E-01
RMM:  96    -0.168573161397E+02   -0.13460E-02   -0.34539E-04    48   0.140E-01    0.344E-01
RMM:  97    -0.168595259178E+02   -0.22098E-02   -0.14964E-03    48   0.285E-01    0.266E-01
RMM:  98    -0.168619451779E+02   -0.24193E-02   -0.58057E-03    48   0.576E-01    0.206E-01
RMM:  99    -0.168624301677E+02   -0.48499E-03   -0.34901E-04    49   0.221E-01    0.213E-01
RMM: 100    -0.168624622643E+02   -0.32097E-04   -0.70754E-05    49   0.535E-02
   1 F= -.16872757E+02 E0= -.16872757E+02  d E =-.168728E+02  mag=     1.0004
 curvature:   0.00 expect dE= 0.000E+00 dE for cont linesearch  0.000E+00
 trial: gam= 0.00000 g(F)=  0.480E+01 g(S)=  0.346E+01 ort = 0.000E+00 (trialstep = 0.100E+01)
 search vector abs. value=  0.827E+01
 bond charge predicted
       N       E                     dE             d eps       ncg     rms          rms(c)
DAV:   1    -0.154873552985E+02    0.13751E+01   -0.58326E+02    48   0.275E+02    0.244E+01
RMM:   2    -0.150419786197E+02    0.44538E+00   -0.65895E+01    53   0.606E+01    0.177E+01
RMM:   3    -0.127198849954E+02    0.23221E+01   -0.74896E+00    49   0.241E+01    0.103E+01
RMM:   4    -0.120651350063E+02    0.65475E+00   -0.23212E+00    51   0.145E+01    0.420E+00
RMM:   5    -0.121713792021E+02   -0.10624E+00   -0.96113E-01    50   0.717E+00    0.271E+00
RMM:   6    -0.123258049245E+02   -0.15443E+00   -0.29256E-01    49   0.399E+00    0.107E+00
RMM:   7    -0.124402208525E+02   -0.11442E+00   -0.36203E-01    50   0.291E+00    0.719E-01
RMM:   8    -0.124711004979E+02   -0.30880E-01   -0.13410E-01    52   0.182E+00    0.472E-01
RMM:   9    -0.124808206354E+02   -0.97201E-02   -0.23830E-02    52   0.934E-01    0.256E-01
RMM:  10    -0.124884790829E+02   -0.76584E-02   -0.13757E-02    52   0.683E-01    0.296E-01
RMM:  11    -0.124932010729E+02   -0.47220E-02   -0.11155E-02    54   0.520E-01    0.224E-01
RMM:  12    -0.124966980272E+02   -0.34970E-02   -0.22154E-03    51   0.322E-01    0.106E-01
RMM:  13    -0.125005515671E+02   -0.38535E-02   -0.15308E-03    49   0.260E-01    0.813E-02
RMM:  14    -0.125031218045E+02   -0.25702E-02   -0.89222E-04    52   0.190E-01    0.611E-02
RMM:  15    -0.125048813648E+02   -0.17596E-02   -0.43008E-04    48   0.159E-01    0.593E-02
RMM:  16    -0.125065202932E+02   -0.16389E-02   -0.60145E-04    48   0.190E-01    0.336E-02
RMM:  17    -0.125073798743E+02   -0.85958E-03   -0.59397E-04    48   0.156E-01    0.219E-02
RMM:  18    -0.125082498493E+02   -0.86998E-03   -0.19104E-04    54   0.996E-02    0.209E-02
RMM:  19    -0.125085108757E+02   -0.26103E-03   -0.33312E-05    50   0.334E-02    0.184E-02
RMM:  20    -0.125087111217E+02   -0.20025E-03   -0.24027E-05    47   0.386E-02    0.137E-02
RMM:  21    -0.125090208644E+02   -0.30974E-03   -0.16273E-04    48   0.100E-01    0.122E-02
RMM:  22    -0.125091837379E+02   -0.16287E-03   -0.99414E-05    49   0.782E-02    0.108E-02
RMM:  23    -0.125093056156E+02   -0.12188E-03   -0.43451E-05    52   0.527E-02    0.102E-02
RMM:  24    -0.125093706350E+02   -0.65019E-04   -0.22670E-05    47   0.376E-02    0.964E-03
RMM:  25    -0.125093657046E+02    0.49304E-05   -0.23997E-04    48   0.123E-01    0.955E-03
RMM:  26    -0.125093951077E+02   -0.29403E-04   -0.21888E-04    49   0.117E-01    0.926E-03
RMM:  27    -0.125094023419E+02   -0.72342E-05   -0.26658E-04    49   0.131E-01    0.904E-03
RMM:  28    -0.125092016782E+02    0.20066E-03   -0.11048E-03    48   0.267E-01    0.123E-02
RMM:  29    -0.125095202249E+02   -0.31855E-03   -0.16947E-04    51   0.116E-01    0.737E-03
RMM:  30    -0.125093359343E+02    0.18429E-03   -0.83559E-04    48   0.231E-01    0.105E-02
RMM:  31    -0.125094630268E+02   -0.12709E-03   -0.47144E-04    49   0.172E-01    0.845E-03
RMM:  32    -0.125095705194E+02   -0.10749E-03   -0.29422E-04    52   0.135E-01    0.693E-03
RMM:  33    -0.125096605071E+02   -0.89988E-04   -0.94057E-05    50   0.780E-02    0.534E-03
RMM:  34    -0.125096701621E+02   -0.96550E-05   -0.83921E-05    48   0.876E-02    0.693E-03
RMM:  35    -0.125097182255E+02   -0.48063E-04   -0.12535E-05    46   0.400E-02    0.516E-03
RMM:  36    -0.125097286452E+02   -0.10420E-04   -0.27701E-06    38   0.139E-02    0.530E-03
RMM:  37    -0.125096090390E+02    0.11961E-03   -0.37951E-04    48   0.159E-01    0.669E-03
RMM:  38    -0.125096840981E+02   -0.75059E-04   -0.14664E-04    49   0.946E-02    0.487E-03
RMM:  39    -0.125096725930E+02    0.11505E-04   -0.21174E-04    48   0.116E-01    0.537E-03
RMM:  40    -0.125097566632E+02   -0.84070E-04   -0.39377E-05    50   0.551E-02    0.293E-03
RMM:  41    -0.125097600007E+02   -0.33375E-05   -0.40681E-05    48   0.501E-02    0.282E-03
RMM:  42    -0.125097773071E+02   -0.17306E-04   -0.15571E-05    46   0.414E-02    0.302E-03
RMM:  43    -0.125097385901E+02    0.38717E-04   -0.12497E-04    48   0.945E-02    0.355E-03
RMM:  44    -0.125097846910E+02   -0.46101E-04   -0.11468E-05    47   0.314E-02    0.202E-03
RMM:  45    -0.125097700891E+02    0.14602E-04   -0.44164E-05    48   0.528E-02    0.241E-03
RMM:  46    -0.125097921758E+02   -0.22087E-04   -0.79888E-06    44   0.248E-02    0.163E-03
RMM:  47    -0.125097974041E+02   -0.52284E-05   -0.41579E-06    39   0.172E-02    0.156E-03
RMM:  48    -0.125097936159E+02    0.37882E-05   -0.11416E-05    46   0.273E-02    0.149E-03
RMM:  49    -0.125097926120E+02    0.10040E-05   -0.12891E-05    45   0.292E-02    0.140E-03
RMM:  50    -0.125097930867E+02   -0.47469E-06   -0.13212E-05    46   0.292E-02    0.141E-03
RMM:  51    -0.125097929381E+02    0.14853E-06   -0.13233E-05    46   0.291E-02    0.136E-03
RMM:  52    -0.125097942989E+02   -0.13608E-05   -0.11794E-05    44   0.276E-02    0.132E-03
RMM:  53    -0.125098033832E+02   -0.90843E-05   -0.20104E-06    36   0.146E-02    0.756E-04
RMM:  54    -0.125098063972E+02   -0.30141E-05   -0.28508E-07    28   0.690E-03    0.684E-04
RMM:  55    -0.125098064345E+02   -0.37279E-07   -0.97774E-08    23   0.394E-03
   2 F= -.12522314E+02 E0= -.12522314E+02  d E =0.435044E+01  mag=     1.0000
 trial-energy change:    4.350444  1 .order   -0.377705   -8.269033    7.513623
 step:   0.5239(harm=  0.5239)  dis= 0.18166  next Energy=   -19.038961 (dE=-0.217E+01)
 bond charge predicted
       N       E                     dE             d eps       ncg     rms          rms(c)
DAV:   1    -0.160493629021E+02   -0.35396E+01   -0.13410E+02    48   0.140E+02    0.122E+01
RMM:   2    -0.154577422971E+02    0.59162E+00   -0.50454E+00    48   0.228E+01    0.652E+00
RMM:   3    -0.155649050877E+02   -0.10716E+00   -0.45148E-01    48   0.702E+00    0.308E+00
RMM:   4    -0.155880552257E+02   -0.23150E-01   -0.97593E-02    49   0.344E+00    0.933E-01
RMM:   5    -0.156428092598E+02   -0.54754E-01   -0.55876E-02    50   0.185E+00    0.379E-01
RMM:   6    -0.156640072376E+02   -0.21198E-01   -0.12966E-02    49   0.776E-01    0.166E-01
RMM:   7    -0.156827922778E+02   -0.18785E-01   -0.91138E-03    48   0.501E-01    0.119E-01
RMM:   8    -0.157019962548E+02   -0.19204E-01   -0.10984E-02    48   0.514E-01    0.890E-02
RMM:   9    -0.157085415010E+02   -0.65452E-02   -0.29759E-03    49   0.254E-01    0.704E-02
RMM:  10    -0.157113626878E+02   -0.28212E-02   -0.85781E-04    50   0.156E-01    0.455E-02
RMM:  11    -0.157142038576E+02   -0.28412E-02   -0.52171E-04    48   0.141E-01    0.434E-02
RMM:  12    -0.157160403419E+02   -0.18365E-02   -0.31914E-04    48   0.876E-02    0.258E-02
RMM:  13    -0.157177651076E+02   -0.17248E-02   -0.28742E-04    48   0.803E-02    0.151E-02
RMM:  14    -0.157187897131E+02   -0.10246E-02   -0.27516E-04    48   0.833E-02    0.885E-03
RMM:  15    -0.157190161260E+02   -0.22641E-03   -0.67122E-05    49   0.519E-02    0.789E-03
RMM:  16    -0.157192073376E+02   -0.19121E-03   -0.27132E-05    46   0.380E-02    0.553E-03
RMM:  17    -0.157193254347E+02   -0.11810E-03   -0.19795E-05    46   0.321E-02    0.441E-03
RMM:  18    -0.157193817002E+02   -0.56265E-04   -0.10643E-05    44   0.241E-02    0.389E-03
RMM:  19    -0.157194078746E+02   -0.26174E-04   -0.46609E-06    42   0.172E-02    0.359E-03
RMM:  20    -0.157194254850E+02   -0.17610E-04   -0.72921E-06    43   0.223E-02    0.349E-03
RMM:  21    -0.157194333829E+02   -0.78980E-05   -0.13239E-05    46   0.298E-02    0.326E-03
RMM:  22    -0.157194407269E+02   -0.73440E-05   -0.13397E-05    47   0.306E-02    0.315E-03
RMM:  23    -0.157194383326E+02    0.23943E-05   -0.15674E-05    46   0.328E-02    0.301E-03
RMM:  24    -0.157194060650E+02    0.32268E-04   -0.90489E-05    48   0.783E-02    0.330E-03
RMM:  25    -0.157193991852E+02    0.68798E-05   -0.11694E-04    48   0.893E-02    0.350E-03
RMM:  26    -0.157194039861E+02   -0.48009E-05   -0.10978E-04    48   0.879E-02    0.333E-03
RMM:  27    -0.157194306073E+02   -0.26621E-04   -0.56171E-05    50   0.633E-02    0.267E-03
RMM:  28    -0.157194359968E+02   -0.53895E-05   -0.50555E-05    48   0.661E-02    0.347E-03
RMM:  29    -0.157194631711E+02   -0.27174E-04   -0.40353E-05    48   0.583E-02    0.223E-03
RMM:  30    -0.157194664908E+02   -0.33197E-05   -0.20106E-05    48   0.393E-02    0.191E-03
RMM:  31    -0.157194543142E+02    0.12177E-04   -0.60393E-05    48   0.643E-02    0.229E-03
RMM:  32    -0.157194708734E+02   -0.16559E-04   -0.25118E-05    50   0.436E-02    0.177E-03
RMM:  33    -0.157194778851E+02   -0.70117E-05   -0.16906E-05    47   0.342E-02    0.149E-03
RMM:  34    -0.157194731518E+02    0.47333E-05   -0.32701E-05    48   0.481E-02    0.169E-03
RMM:  35    -0.157194735938E+02   -0.44199E-06   -0.33624E-05    48   0.492E-02    0.171E-03
RMM:  36    -0.157194823804E+02   -0.87865E-05   -0.18519E-05    49   0.372E-02    0.135E-03
RMM:  37    -0.157194947134E+02   -0.12333E-04   -0.87684E-07    33   0.122E-02    0.722E-04
RMM:  38    -0.157194960505E+02   -0.13371E-05   -0.21397E-07    30   0.708E-03    0.701E-04
RMM:  39    -0.157194951749E+02    0.87560E-06   -0.18851E-06    34   0.118E-02
   3 F= -.15731780E+02 E0= -.15731780E+02  d E =0.114098E+01  mag=     1.0000
 curvature:  -0.26 expect dE=-0.158E+01 dE for cont linesearch -0.148E+01
 ZBRENT: interpolating
 opt :   0.2870  next Energy=   -16.540238 (dE= 0.333E+00)
 bond charge predicted
       N       E                     dE             d eps       ncg     rms          rms(c)
DAV:   1    -0.171716075284E+02   -0.14521E+01   -0.38236E+01    48   0.764E+01    0.580E+00
RMM:   2    -0.168846119035E+02    0.28700E+00   -0.14022E+00    48   0.119E+01    0.339E+00
RMM:   3    -0.169614505221E+02   -0.76839E-01   -0.10685E-01    48   0.344E+00    0.185E+00
RMM:   4    -0.169496714941E+02    0.11779E-01   -0.51193E-02    48   0.232E+00    0.592E-01
RMM:   5    -0.169902544812E+02   -0.40583E-01   -0.31381E-02    48   0.121E+00    0.246E-01
RMM:   6    -0.170015296707E+02   -0.11275E-01   -0.66558E-03    50   0.513E-01    0.152E-01
RMM:   7    -0.170126448410E+02   -0.11115E-01   -0.52787E-03    48   0.398E-01    0.780E-02
RMM:   8    -0.170216741432E+02   -0.90293E-02   -0.37022E-03    49   0.312E-01    0.537E-02
RMM:   9    -0.170240127714E+02   -0.23386E-02   -0.41994E-04    49   0.128E-01    0.315E-02
RMM:  10    -0.170272165152E+02   -0.32037E-02   -0.57942E-04    48   0.132E-01    0.225E-02
RMM:  11    -0.170286427679E+02   -0.14263E-02   -0.24818E-04    48   0.913E-02    0.173E-02
RMM:  12    -0.170295770878E+02   -0.93432E-03   -0.16840E-04    48   0.617E-02    0.127E-02
RMM:  13    -0.170304340909E+02   -0.85700E-03   -0.21742E-04    48   0.731E-02    0.817E-03
RMM:  14    -0.170306135132E+02   -0.17942E-03   -0.52754E-05    48   0.425E-02    0.571E-03
RMM:  15    -0.170307850684E+02   -0.17156E-03   -0.31270E-05    48   0.396E-02    0.523E-03
RMM:  16    -0.170308466920E+02   -0.61624E-04   -0.11393E-05    43   0.254E-02    0.462E-03
RMM:  17    -0.170309059739E+02   -0.59282E-04   -0.17720E-05    48   0.340E-02    0.416E-03
RMM:  18    -0.170309391358E+02   -0.33162E-04   -0.17450E-05    48   0.339E-02    0.389E-03
RMM:  19    -0.170309511215E+02   -0.11986E-04   -0.76275E-06    44   0.234E-02    0.388E-03
RMM:  20    -0.170309564533E+02   -0.53317E-05   -0.89651E-07    33   0.107E-02    0.387E-03
RMM:  21    -0.170309517513E+02    0.47019E-05   -0.84372E-07    32   0.107E-02    0.423E-03
RMM:  22    -0.170309473546E+02    0.43967E-05   -0.55593E-05    48   0.633E-02    0.425E-03
RMM:  23    -0.170309538414E+02   -0.64867E-05   -0.35100E-05    48   0.497E-02    0.425E-03
RMM:  24    -0.170309586757E+02   -0.48343E-05   -0.24090E-05    48   0.429E-02    0.441E-03
RMM:  25    -0.170309520671E+02    0.66086E-05   -0.38076E-05    48   0.559E-02    0.520E-03
RMM:  26    -0.170309456004E+02    0.64667E-05   -0.13521E-04    48   0.101E-01    0.431E-03
RMM:  27    -0.170309474246E+02   -0.18241E-05   -0.10499E-04    48   0.884E-02    0.383E-03
RMM:  28    -0.170309575967E+02   -0.10172E-04   -0.93264E-05    48   0.839E-02    0.325E-03
RMM:  29    -0.170309713746E+02   -0.13778E-04   -0.70917E-05    48   0.738E-02    0.271E-03
RMM:  30    -0.170309593990E+02    0.11976E-04   -0.13388E-04    48   0.994E-02    0.311E-03
RMM:  31    -0.170309986513E+02   -0.39252E-04   -0.22957E-05    50   0.467E-02    0.196E-03
RMM:  32    -0.170310127036E+02   -0.14052E-04   -0.75301E-07    33   0.113E-02    0.193E-03
RMM:  33    -0.170310127869E+02   -0.83316E-07   -0.25016E-07    32   0.673E-03
   4 F= -.17041797E+02 E0= -.17041797E+02  d E =-.169040E+00  mag=     1.0000
 curvature:  -0.14 expect dE=-0.359E+00 dE for cont linesearch -0.336E+00
 ZBRENT: bisectioning
 opt :   0.1435  next Energy=   -17.568052 (dE=-0.695E+00)
 bond charge predicted
       N       E                     dE             d eps       ncg     rms          rms(c)
DAV:   1    -0.175108930978E+02   -0.47988E+00   -0.15470E+01    72   0.489E+01    0.294E+00
RMM:   2    -0.174029807795E+02    0.10791E+00   -0.51804E-01    48   0.720E+00    0.153E+00
RMM:   3    -0.174258222716E+02   -0.22841E-01   -0.54008E-02    48   0.245E+00    0.936E-01
RMM:   4    -0.174192253514E+02    0.65969E-02   -0.22119E-02    48   0.159E+00    0.421E-01
RMM:   5    -0.174315355716E+02   -0.12310E-01   -0.10472E-02    51   0.769E-01    0.231E-01
RMM:   6    -0.174355123423E+02   -0.39768E-02   -0.19575E-03    49   0.271E-01    0.158E-01
RMM:   7    -0.174414614162E+02   -0.59491E-02   -0.22071E-03    48   0.340E-01    0.632E-02
RMM:   8    -0.174431061369E+02   -0.16447E-02   -0.26360E-04    49   0.114E-01    0.388E-02
RMM:   9    -0.174440267481E+02   -0.92061E-03   -0.11003E-04    49   0.819E-02    0.238E-02
RMM:  10    -0.174449054233E+02   -0.87868E-03   -0.76533E-05    48   0.554E-02    0.132E-02
RMM:  11    -0.174457239193E+02   -0.81850E-03   -0.10669E-04    48   0.607E-02    0.111E-02
RMM:  12    -0.174462547888E+02   -0.53087E-03   -0.79024E-05    48   0.566E-02    0.124E-02
RMM:  13    -0.174466414425E+02   -0.38665E-03   -0.75800E-05    49   0.588E-02    0.100E-02
RMM:  14    -0.174468963680E+02   -0.25493E-03   -0.66546E-05    48   0.551E-02    0.635E-03
RMM:  15    -0.174470064559E+02   -0.11009E-03   -0.40088E-05    48   0.492E-02    0.604E-03
RMM:  16    -0.174470413694E+02   -0.34913E-04   -0.12800E-05    49   0.301E-02    0.551E-03
RMM:  17    -0.174470493425E+02   -0.79730E-05   -0.87072E-07    33   0.100E-02    0.550E-03
RMM:  18    -0.174470463637E+02    0.29788E-05   -0.20496E-07    32   0.675E-03    0.569E-03
RMM:  19    -0.174470715051E+02   -0.25141E-04   -0.24260E-05    48   0.427E-02    0.606E-03
RMM:  20    -0.174470909415E+02   -0.19436E-04   -0.20996E-05    48   0.385E-02    0.590E-03
RMM:  21    -0.174470973168E+02   -0.63753E-05   -0.15298E-05    48   0.347E-02    0.605E-03
RMM:  22    -0.174470965087E+02    0.80815E-06   -0.27877E-05    48   0.457E-02    0.593E-03
RMM:  23    -0.174471101331E+02   -0.13624E-04   -0.14269E-06    35   0.173E-02    0.638E-03
RMM:  24    -0.174471084928E+02    0.16402E-05   -0.13428E-06    32   0.126E-02    0.625E-03
RMM:  25    -0.174471135435E+02   -0.50506E-05   -0.46381E-06    41   0.199E-02    0.571E-03
RMM:  26    -0.174471101900E+02    0.33534E-05   -0.58150E-05    48   0.643E-02    0.524E-03
RMM:  27    -0.174471190034E+02   -0.88134E-05   -0.40227E-05    48   0.541E-02    0.506E-03
RMM:  28    -0.174471282125E+02   -0.92091E-05   -0.22803E-05    48   0.423E-02    0.468E-03
RMM:  29    -0.174471295547E+02   -0.13422E-05   -0.33514E-05    48   0.503E-02    0.419E-03
RMM:  30    -0.174471369086E+02   -0.73539E-05   -0.22863E-05    48   0.434E-02    0.374E-03
RMM:  31    -0.174471376119E+02   -0.70329E-06   -0.37344E-05    48   0.530E-02    0.343E-03
RMM:  32    -0.174471488264E+02   -0.11215E-04   -0.12632E-05    48   0.334E-02    0.332E-03
RMM:  33    -0.174471522440E+02   -0.34177E-05   -0.91480E-07    33   0.126E-02    0.365E-03
RMM:  34    -0.174471545747E+02   -0.23307E-05   -0.34915E-06    41   0.171E-02    0.329E-03
RMM:  35    -0.174471491088E+02    0.54659E-05   -0.31764E-06    41   0.176E-02    0.377E-03
RMM:  36    -0.174471549407E+02   -0.58318E-05   -0.58928E-06    42   0.222E-02    0.324E-03
RMM:  37    -0.174471354060E+02    0.19535E-04   -0.90725E-05    48   0.822E-02    0.287E-03
RMM:  38    -0.174471583230E+02   -0.22917E-04   -0.12390E-05    47   0.324E-02    0.246E-03
RMM:  39    -0.174471484525E+02    0.98704E-05   -0.57462E-05    48   0.648E-02    0.238E-03
RMM:  40    -0.174471689371E+02   -0.20485E-04   -0.36633E-06    38   0.211E-02    0.213E-03
RMM:  41    -0.174471730162E+02   -0.40792E-05   -0.53687E-07    33   0.845E-03    0.219E-03
RMM:  42    -0.174471727973E+02    0.21892E-06   -0.17915E-06    34   0.121E-02
   5 F= -.17457521E+02 E0= -.17457521E+02  d E =-.584763E+00  mag=     1.0000
 curvature:  -0.22 expect dE=-0.757E-01 dE for cont linesearch -0.428E-01
 ZBRENT: interpolating
 opt :   0.0996  next Energy=   -17.491530 (dE=-0.619E+00)
 bond charge predicted
       N       E                     dE             d eps       ncg     rms          rms(c)
DAV:   1    -0.174771630111E+02   -0.29990E-01   -0.15113E+00    48   0.153E+01    0.913E-01
RMM:   2    -0.174703981500E+02    0.67649E-02   -0.55162E-02    48   0.254E+00    0.466E-01
RMM:   3    -0.174706830711E+02   -0.28492E-03   -0.53371E-03    49   0.879E-01    0.245E-01
RMM:   4    -0.174705913297E+02    0.91741E-04   -0.17023E-03    48   0.457E-01    0.106E-01
RMM:   5    -0.174706507081E+02   -0.59378E-04   -0.27193E-04    48   0.199E-01    0.527E-02
RMM:   6    -0.174709190640E+02   -0.26836E-03   -0.88589E-05    49   0.747E-02    0.337E-02
RMM:   7    -0.174713965474E+02   -0.47748E-03   -0.57913E-05    48   0.569E-02    0.129E-02
RMM:   8    -0.174717064900E+02   -0.30994E-03   -0.25422E-05    48   0.358E-02    0.947E-03
RMM:   9    -0.174718470706E+02   -0.14058E-03   -0.76595E-06    40   0.211E-02    0.694E-03
RMM:  10    -0.174719810071E+02   -0.13394E-03   -0.10393E-05    44   0.233E-02    0.509E-03
RMM:  11    -0.174720911339E+02   -0.11013E-03   -0.12147E-05    47   0.259E-02    0.473E-03
RMM:  12    -0.174721941873E+02   -0.10305E-03   -0.15783E-05    46   0.298E-02    0.393E-03
RMM:  13    -0.174722740875E+02   -0.79900E-04   -0.20513E-05    48   0.344E-02    0.353E-03
RMM:  14    -0.174723176564E+02   -0.43569E-04   -0.16348E-05    47   0.327E-02    0.319E-03
RMM:  15    -0.174723381887E+02   -0.20532E-04   -0.10061E-05    47   0.270E-02    0.303E-03
RMM:  16    -0.174723483657E+02   -0.10177E-04   -0.45131E-06    41   0.192E-02    0.296E-03
RMM:  17    -0.174723540261E+02   -0.56604E-05   -0.73048E-06    46   0.232E-02    0.286E-03
RMM:  18    -0.174723481431E+02    0.58831E-05   -0.27882E-05    48   0.456E-02    0.261E-03
RMM:  19    -0.174723455232E+02    0.26199E-05   -0.42865E-05    48   0.572E-02    0.257E-03
RMM:  20    -0.174723413484E+02    0.41747E-05   -0.59899E-05    48   0.680E-02    0.236E-03
RMM:  21    -0.174723456685E+02   -0.43200E-05   -0.60523E-05    48   0.694E-02    0.216E-03
RMM:  22    -0.174723382042E+02    0.74643E-05   -0.11508E-04    48   0.935E-02    0.249E-03
RMM:  23    -0.174723717769E+02   -0.33573E-04   -0.16852E-05    47   0.431E-02    0.147E-03
RMM:  24    -0.174723763129E+02   -0.45361E-05   -0.13364E-05    48   0.297E-02    0.125E-03
RMM:  25    -0.174723792688E+02   -0.29559E-05   -0.81872E-06    47   0.263E-02    0.115E-03
RMM:  26    -0.174723835246E+02   -0.42558E-05   -0.63629E-07    33   0.102E-02    0.113E-03
RMM:  27    -0.174723828298E+02    0.69481E-06   -0.48857E-07    31   0.933E-03
   6 F= -.17482696E+02 E0= -.17482696E+02  d E =-.609939E+00  mag=     1.0000
 curvature:  -0.18 expect dE=-0.256E-01 dE for cont linesearch -0.405E-03
 ZBRENT: interpolating
 opt :   0.1039  next Energy=   -17.482992 (dE=-0.610E+00)
 bond charge predicted
       N       E                     dE             d eps       ncg     rms          rms(c)
DAV:   1    -0.174726919576E+02   -0.30843E-03   -0.14782E-02    48   0.150E+00    0.895E-02
RMM:   2    -0.174726341923E+02    0.57765E-04   -0.53906E-04    49   0.249E-01    0.460E-02
RMM:   3    -0.174726293881E+02    0.48042E-05   -0.46697E-05    48   0.871E-02    0.257E-02
RMM:   4    -0.174726279112E+02    0.14769E-05   -0.15637E-05    49   0.441E-02    0.119E-02
RMM:   5    -0.174726322596E+02   -0.43484E-05   -0.20630E-06    34   0.186E-02    0.507E-03
RMM:   6    -0.174726329984E+02   -0.73876E-06   -0.10325E-06    31   0.147E-02
   7 F= -.17482947E+02 E0= -.17482947E+02  d E =-.610190E+00  mag=     1.0000
 curvature:  -0.13 expect dE=-0.185E-01 dE for cont linesearch -0.231E-05
 trial: gam= 0.01863 g(F)=  0.140E+00 g(S)=  0.187E-02 ort =-0.121E-01 (trialstep = 0.821E+00)
 search vector abs. value=  0.144E+00
 bond charge predicted
       N       E                     dE             d eps       ncg     rms          rms(c)
DAV:   1    -0.175206324056E+02   -0.48000E-01   -0.19405E+01    48   0.560E+01    0.266E+00
RMM:   2    -0.175397128108E+02   -0.19080E-01   -0.46960E-01    48   0.779E+00    0.133E+00
RMM:   3    -0.175508363806E+02   -0.11124E-01   -0.35380E-02    49   0.241E+00    0.612E-01
RMM:   4    -0.175552010720E+02   -0.43647E-02   -0.11801E-02    50   0.959E-01    0.263E-01
RMM:   5    -0.175560463623E+02   -0.84529E-03   -0.21200E-03    50   0.442E-01    0.143E-01
RMM:   6    -0.175575833336E+02   -0.15370E-02   -0.69537E-04    48   0.202E-01    0.753E-02
RMM:   7    -0.175581654828E+02   -0.58215E-03   -0.28512E-04    49   0.126E-01    0.395E-02
RMM:   8    -0.175584209689E+02   -0.25549E-03   -0.56179E-05    48   0.679E-02    0.185E-02
RMM:   9    -0.175586825045E+02   -0.26154E-03   -0.33229E-05    48   0.381E-02    0.886E-03
RMM:  10    -0.175588478450E+02   -0.16534E-03   -0.12292E-05    42   0.245E-02    0.600E-03
RMM:  11    -0.175591557822E+02   -0.30794E-03   -0.47971E-05    46   0.362E-02    0.649E-03
RMM:  12    -0.175592906604E+02   -0.13488E-03   -0.26909E-05    46   0.254E-02    0.414E-03
RMM:  13    -0.175593699454E+02   -0.79285E-04   -0.10429E-05    43   0.183E-02    0.227E-03
RMM:  14    -0.175594102170E+02   -0.40272E-04   -0.40679E-06    38   0.139E-02    0.133E-03
RMM:  15    -0.175594398459E+02   -0.29629E-04   -0.25169E-06    36   0.111E-02    0.967E-04
RMM:  16    -0.175594574803E+02   -0.17634E-04   -0.13283E-06    35   0.850E-03    0.752E-04
RMM:  17    -0.175594696427E+02   -0.12162E-04   -0.11056E-06    35   0.755E-03    0.563E-04
RMM:  18    -0.175594723799E+02   -0.27373E-05   -0.31767E-07    33   0.574E-03    0.467E-04
RMM:  19    -0.175594744522E+02   -0.20722E-05   -0.31052E-07    31   0.523E-03    0.397E-04
RMM:  20    -0.175594751130E+02   -0.66081E-06   -0.17904E-07    29   0.476E-03
   8 F= -.17569544E+02 E0= -.17569544E+02  d E =-.865969E-01  mag=     1.0000
 trial-energy change:   -0.086597  1 .order   -0.086409   -0.116369   -0.056450
 step:   1.5940(harm=  1.5940)  dis= 0.07272  next Energy=   -17.595947 (dE=-0.113E+00)
 bond charge predicted
       N       E                     dE             d eps       ncg     rms          rms(c)
DAV:   1    -0.175448697691E+02    0.14605E-01   -0.17351E+01    48   0.529E+01    0.231E+00
RMM:   2    -0.175749748533E+02   -0.30105E-01   -0.41660E-01    48   0.735E+00    0.111E+00
RMM:   3    -0.175835464827E+02   -0.85716E-02   -0.30375E-02    49   0.221E+00    0.528E-01
RMM:   4    -0.175848668463E+02   -0.13204E-02   -0.86152E-03    51   0.847E-01    0.224E-01
RMM:   5    -0.175858194325E+02   -0.95259E-03   -0.10442E-03    51   0.331E-01    0.139E-01
RMM:   6    -0.175862732123E+02   -0.45378E-03   -0.21029E-04    52   0.126E-01    0.565E-02
RMM:   7    -0.175865858047E+02   -0.31259E-03   -0.13249E-04    48   0.895E-02    0.187E-02
RMM:   8    -0.175867918960E+02   -0.20609E-03   -0.37672E-05    47   0.529E-02    0.117E-02
RMM:   9    -0.175869360690E+02   -0.14417E-03   -0.18224E-05    44   0.255E-02    0.870E-03
RMM:  10    -0.175871053847E+02   -0.16932E-03   -0.14162E-05    45   0.228E-02    0.571E-03
RMM:  11    -0.175873629403E+02   -0.25756E-03   -0.35101E-05    44   0.283E-02    0.448E-03
RMM:  12    -0.175874664312E+02   -0.10349E-03   -0.19346E-05    43   0.199E-02    0.308E-03
RMM:  13    -0.175875278097E+02   -0.61379E-04   -0.78486E-06    42   0.152E-02    0.164E-03
RMM:  14    -0.175875656350E+02   -0.37825E-04   -0.29828E-06    36   0.109E-02    0.996E-04
RMM:  15    -0.175875895920E+02   -0.23957E-04   -0.17381E-06    36   0.887E-03    0.724E-04
RMM:  16    -0.175876056735E+02   -0.16081E-04   -0.11696E-06    35   0.695E-03    0.447E-04
RMM:  17    -0.175876126456E+02   -0.69721E-05   -0.44484E-07    29   0.506E-03    0.295E-04
RMM:  18    -0.175876152997E+02   -0.26541E-05   -0.25073E-07    29   0.434E-03    0.218E-04
RMM:  19    -0.175876163532E+02   -0.10534E-05   -0.13373E-07    23   0.352E-03    0.142E-04
RMM:  20    -0.175876168099E+02   -0.45678E-06   -0.79983E-08    22   0.285E-03
   9 F= -.17597462E+02 E0= -.17597462E+02  d E =-.114515E+00  mag=     1.0000
 curvature:  -0.81 expect dE=-0.211E+00 dE for cont linesearch -0.156E-03
 trial: gam= 1.82147 g(F)=  0.253E+00 g(S)=  0.620E-02 ort = 0.527E-02 (trialstep = 0.186E+00)
 search vector abs. value=  0.758E+00
 bond charge predicted
       N       E                     dE             d eps       ncg     rms          rms(c)
DAV:   1    -0.176242544610E+02   -0.36638E-01   -0.37372E+00    48   0.244E+01    0.747E-01
RMM:   2    -0.176258674257E+02   -0.16130E-02   -0.72348E-02    48   0.310E+00    0.465E-01
RMM:   3    -0.176322069635E+02   -0.63395E-02   -0.55444E-03    49   0.860E-01    0.279E-01
RMM:   4    -0.176329299502E+02   -0.72299E-03   -0.20317E-03    50   0.412E-01    0.871E-02
RMM:   5    -0.176337011160E+02   -0.77117E-03   -0.31187E-04    48   0.193E-01    0.475E-02
RMM:   6    -0.176339213427E+02   -0.22023E-03   -0.65644E-05    50   0.776E-02    0.271E-02
RMM:   7    -0.176340693663E+02   -0.14802E-03   -0.26307E-05    45   0.376E-02    0.115E-02
RMM:   8    -0.176341586706E+02   -0.89304E-04   -0.98683E-06    42   0.206E-02    0.583E-03
RMM:   9    -0.176342109800E+02   -0.52309E-04   -0.40739E-06    39   0.138E-02    0.337E-03
RMM:  10    -0.176342484301E+02   -0.37450E-04   -0.22277E-06    37   0.105E-02    0.177E-03
RMM:  11    -0.176342859783E+02   -0.37548E-04   -0.25217E-06    38   0.962E-03    0.146E-03
RMM:  12    -0.176343075704E+02   -0.21592E-04   -0.12856E-06    34   0.823E-03    0.113E-03
RMM:  13    -0.176343330474E+02   -0.25477E-04   -0.27019E-06    37   0.911E-03    0.908E-04
RMM:  14    -0.176343393516E+02   -0.63042E-05   -0.62687E-07    33   0.755E-03    0.542E-04
RMM:  15    -0.176343429114E+02   -0.35598E-05   -0.37034E-07    29   0.550E-03    0.315E-04
RMM:  16    -0.176343458507E+02   -0.29393E-05   -0.26103E-07    28   0.471E-03    0.360E-04
RMM:  17    -0.176343481089E+02   -0.22582E-05   -0.19556E-07    26   0.385E-03    0.196E-04
RMM:  18    -0.176343494721E+02   -0.13631E-05   -0.13408E-07    23   0.340E-03    0.137E-04
RMM:  19    -0.176343500871E+02   -0.61506E-06   -0.11382E-07    24   0.302E-03
  10 F= -.17644229E+02 E0= -.17644229E+02  d E =-.467667E-01  mag=     1.0000
 ZBRENT: can't locate minimum, use default step
 trial-energy change:   -0.046767  1 .order   -0.046641   -0.050004   -0.043279
 step:   0.7437(harm=  1.3825)  dis= 0.06714  next Energy=   -17.741561 (dE=-0.144E+00)
 bond charge predicted
       N       E                     dE             d eps       ncg     rms          rms(c)
DAV:   1    -0.176379466618E+02   -0.35972E-02   -0.33522E+01    48   0.732E+01    0.212E+00
RMM:   2    -0.176727404880E+02   -0.34794E-01   -0.65923E-01    48   0.945E+00    0.128E+00
RMM:   3    -0.177131377606E+02   -0.40397E-01   -0.52512E-02    49   0.272E+00    0.788E-01
RMM:   4    -0.177164466416E+02   -0.33089E-02   -0.11809E-02    48   0.112E+00    0.254E-01
RMM:   5    -0.177219466105E+02   -0.55000E-02   -0.28982E-03    51   0.572E-01    0.145E-01
RMM:   6    -0.177229084740E+02   -0.96186E-03   -0.43181E-04    51   0.184E-01    0.817E-02
RMM:   7    -0.177232126158E+02   -0.30414E-03   -0.19453E-04    49   0.115E-01    0.382E-02
RMM:   8    -0.177234777265E+02   -0.26511E-03   -0.62122E-05    49   0.620E-02    0.145E-02
RMM:   9    -0.177237588073E+02   -0.28108E-03   -0.28181E-05    46   0.353E-02    0.887E-03
RMM:  10    -0.177238924163E+02   -0.13361E-03   -0.13942E-05    43   0.249E-02    0.581E-03
RMM:  11    -0.177240356548E+02   -0.14324E-03   -0.16029E-05    44   0.224E-02    0.399E-03
RMM:  12    -0.177240955898E+02   -0.59935E-04   -0.51544E-06    39   0.138E-02    0.265E-03
RMM:  13    -0.177241650585E+02   -0.69469E-04   -0.69397E-06    41   0.136E-02    0.158E-03
RMM:  14    -0.177241976176E+02   -0.32559E-04   -0.49017E-06    39   0.124E-02    0.895E-04
RMM:  15    -0.177242090730E+02   -0.11455E-04   -0.10238E-06    34   0.824E-03    0.726E-04
RMM:  16    -0.177242168152E+02   -0.77422E-05   -0.54320E-07    32   0.601E-03    0.495E-04
RMM:  17    -0.177242220908E+02   -0.52756E-05   -0.36806E-07    29   0.503E-03    0.407E-04
RMM:  18    -0.177242246541E+02   -0.25633E-05   -0.21105E-07    27   0.425E-03    0.257E-04
RMM:  19    -0.177242267330E+02   -0.20788E-05   -0.22682E-07    27   0.349E-03    0.140E-04
RMM:  20    -0.177242270720E+02   -0.33900E-06   -0.95707E-08    22   0.339E-03
  11 F= -.17734247E+02 E0= -.17734247E+02  d E =-.136784E+00  mag=     1.0000
 curvature:  -1.39 expect dE=-0.633E+00 dE for cont linesearch -0.120E-01
 ZBRENT: increasing intervall
 opt :   1.8592  next Energy=   -17.654534 (dE=-0.571E-01)
 bond charge predicted
       N       E                     dE             d eps       ncg     rms          rms(c)
DAV:   1    -0.171710121620E+02    0.55321E+00   -0.13280E+02    48   0.146E+02    0.401E+00
RMM:   2    -0.174600845104E+02   -0.28907E+00   -0.31586E+00    48   0.196E+01    0.246E+00
RMM:   3    -0.175443292585E+02   -0.84245E-01   -0.27352E-01    49   0.572E+00    0.150E+00
RMM:   4    -0.175433925702E+02    0.93669E-03   -0.58564E-02    49   0.250E+00    0.569E-01
RMM:   5    -0.175647524803E+02   -0.21360E-01   -0.16418E-02    50   0.122E+00    0.449E-01
RMM:   6    -0.175737982254E+02   -0.90457E-02   -0.28712E-03    48   0.520E-01    0.174E-01
RMM:   7    -0.175796855749E+02   -0.58873E-02   -0.11753E-03    51   0.270E-01    0.773E-02
RMM:   8    -0.175828897051E+02   -0.32041E-02   -0.50050E-04    48   0.151E-01    0.347E-02
RMM:   9    -0.175834082901E+02   -0.51859E-03   -0.20242E-04    52   0.873E-02    0.231E-02
RMM:  10    -0.175835978271E+02   -0.18954E-03   -0.49603E-05    49   0.407E-02    0.142E-02
RMM:  11    -0.175840456949E+02   -0.44787E-03   -0.10634E-04    48   0.592E-02    0.807E-03
RMM:  12    -0.175842524788E+02   -0.20678E-03   -0.31863E-05    47   0.323E-02    0.630E-03
RMM:  13    -0.175843938075E+02   -0.14133E-03   -0.20074E-05    44   0.214E-02    0.390E-03
RMM:  14    -0.175845094294E+02   -0.11562E-03   -0.15847E-05    42   0.188E-02    0.359E-03
RMM:  15    -0.175845624371E+02   -0.53008E-04   -0.65813E-06    40   0.139E-02    0.227E-03
RMM:  16    -0.175846014771E+02   -0.39040E-04   -0.31228E-06    36   0.965E-03    0.145E-03
RMM:  17    -0.175846243098E+02   -0.22833E-04   -0.36837E-06    38   0.917E-03    0.641E-04
RMM:  18    -0.175846287899E+02   -0.44801E-05   -0.45782E-07    31   0.563E-03    0.427E-04
RMM:  19    -0.175846318308E+02   -0.30409E-05   -0.23745E-07    30   0.415E-03    0.317E-04
RMM:  20    -0.175846338782E+02   -0.20474E-05   -0.17541E-07    27   0.328E-03    0.169E-04
RMM:  21    -0.175846349934E+02   -0.11152E-05   -0.11894E-07    24   0.303E-03    0.127E-04
RMM:  22    -0.175846353659E+02   -0.37251E-06   -0.58552E-08    20   0.258E-03
  12 F= -.17595163E+02 E0= -.17595163E+02  d E =0.229902E-02  mag=     1.0000
 curvature:   9.28 expect dE= 0.261E+02 dE for cont linesearch  0.150E+01
 ZBRENT: bracketing found
 ZBRENT: interpolating
 opt :   0.9524  next Energy=   -17.742664 (dE=-0.145E+00)
 bond charge predicted
       N       E                     dE             d eps       ncg     rms          rms(c)
DAV:   1    -0.175467073382E+02    0.37928E-01   -0.89396E+01    48   0.126E+02    0.309E+00
RMM:   2    -0.176860496880E+02   -0.13934E+00   -0.18737E+00    48   0.149E+01    0.229E+00
RMM:   3    -0.177160655069E+02   -0.30016E-01   -0.13788E-01    50   0.374E+00    0.143E+00
RMM:   4    -0.176842409847E+02    0.31825E-01   -0.53195E-02    49   0.222E+00    0.587E-01
RMM:   5    -0.177111331685E+02   -0.26892E-01   -0.14514E-02    48   0.131E+00    0.266E-01
RMM:   6    -0.177243582919E+02   -0.13225E-01   -0.49737E-03    50   0.616E-01    0.110E-01
RMM:   7    -0.177302952103E+02   -0.59369E-02   -0.10586E-03    50   0.229E-01    0.682E-02
RMM:   8    -0.177311333847E+02   -0.83817E-03   -0.22385E-04    49   0.139E-01    0.341E-02
RMM:   9    -0.177315100714E+02   -0.37669E-03   -0.11079E-04    48   0.780E-02    0.127E-02
RMM:  10    -0.177319493309E+02   -0.43926E-03   -0.22903E-05    45   0.379E-02    0.855E-03
RMM:  11    -0.177323838799E+02   -0.43455E-03   -0.42063E-05    43   0.303E-02    0.524E-03
RMM:  12    -0.177327363264E+02   -0.35245E-03   -0.59907E-05    45   0.334E-02    0.437E-03
RMM:  13    -0.177328832699E+02   -0.14694E-03   -0.20845E-05    42   0.215E-02    0.340E-03
RMM:  14    -0.177329864191E+02   -0.10315E-03   -0.11202E-05    40   0.173E-02    0.151E-03
RMM:  15    -0.177330226033E+02   -0.36184E-04   -0.53646E-06    40   0.113E-02    0.842E-04
RMM:  16    -0.177330378826E+02   -0.15279E-04   -0.77827E-07    34   0.619E-03    0.678E-04
RMM:  17    -0.177330558140E+02   -0.17931E-04   -0.10394E-06    34   0.615E-03    0.494E-04
RMM:  18    -0.177330615872E+02   -0.57732E-05   -0.46143E-07    30   0.466E-03    0.266E-04
RMM:  19    -0.177330639927E+02   -0.24055E-05   -0.18562E-07    26   0.352E-03    0.206E-04
RMM:  20    -0.177330651457E+02   -0.11530E-05   -0.11419E-07    24   0.285E-03    0.149E-04
RMM:  21    -0.177330659462E+02   -0.80049E-06   -0.98697E-08    24   0.255E-03
  13 F= -.17743154E+02 E0= -.17743154E+02  d E =-.145692E+00  mag=     1.0000
 curvature:  -0.05 expect dE=-0.364E-01 dE for cont linesearch -0.755E-05
 trial: gam= 2.67037 g(F)=  0.238E+00 g(S)=  0.462E+00 ort = 0.105E-01 (trialstep = 0.417E-01)
 search vector abs. value=  0.616E+01
 bond charge predicted
       N       E                     dE             d eps       ncg     rms          rms(c)
DAV:   1    -0.177594495726E+02   -0.26384E-01   -0.13107E+00    48   0.147E+01    0.458E-01
RMM:   2    -0.177591711910E+02    0.27838E-03   -0.26154E-02    48   0.192E+00    0.255E-01
RMM:   3    -0.177604246916E+02   -0.12535E-02   -0.21935E-03    48   0.510E-01    0.150E-01
RMM:   4    -0.177610778657E+02   -0.65317E-03   -0.58741E-04    50   0.264E-01    0.553E-02
RMM:   5    -0.177623133111E+02   -0.12354E-02   -0.19340E-04    49   0.115E-01    0.194E-02
RMM:   6    -0.177626486570E+02   -0.33535E-03   -0.36968E-05    48   0.474E-02    0.118E-02
RMM:   7    -0.177628293254E+02   -0.18067E-03   -0.12893E-05    43   0.243E-02    0.635E-03
RMM:   8    -0.177628589249E+02   -0.29600E-04   -0.46058E-06    40   0.164E-02    0.259E-03
RMM:   9    -0.177628644619E+02   -0.55370E-05   -0.63029E-07    33   0.992E-03    0.118E-03
RMM:  10    -0.177628770299E+02   -0.12568E-04   -0.73107E-07    34   0.670E-03    0.783E-04
RMM:  11    -0.177628876080E+02   -0.10578E-04   -0.12410E-06    36   0.627E-03    0.702E-04
RMM:  12    -0.177628960990E+02   -0.84911E-05   -0.82493E-07    34   0.535E-03    0.521E-04
RMM:  13    -0.177629044932E+02   -0.83942E-05   -0.45370E-07    29   0.484E-03    0.371E-04
RMM:  14    -0.177629093927E+02   -0.48995E-05   -0.42259E-07    29   0.468E-03    0.261E-04
RMM:  15    -0.177629110887E+02   -0.16959E-05   -0.24993E-07    27   0.453E-03    0.145E-04
RMM:  16    -0.177629118056E+02   -0.71690E-06   -0.14842E-07    24   0.346E-03
  14 F= -.17773054E+02 E0= -.17773054E+02  d E =-.298991E-01  mag=     1.0000
 ZBRENT: can't locate minimum, use default step
 trial-energy change:   -0.029899  1 .order   -0.029881   -0.030393   -0.029369
 step:   0.1669(harm=  1.2395)  dis= 0.03708  next Energy=   -18.194529 (dE=-0.451E+00)
 bond charge predicted
       N       E                     dE             d eps       ncg     rms          rms(c)
DAV:   1    -0.178169054154E+02   -0.53994E-01   -0.11728E+01    48   0.439E+01    0.140E+00
RMM:   2    -0.178189936118E+02   -0.20882E-02   -0.24137E-01    48   0.573E+00    0.766E-01
RMM:   3    -0.178297167958E+02   -0.10723E-01   -0.21838E-02    49   0.155E+00    0.455E-01
RMM:   4    -0.178332154860E+02   -0.34987E-02   -0.53354E-03    49   0.803E-01    0.195E-01
RMM:   5    -0.178404639856E+02   -0.72485E-02   -0.19416E-03    49   0.367E-01    0.763E-02
RMM:   6    -0.178431888633E+02   -0.27249E-02   -0.33625E-04    52   0.142E-01    0.388E-02
RMM:   7    -0.178449962741E+02   -0.18074E-02   -0.99682E-05    49   0.698E-02    0.225E-02
RMM:   8    -0.178457126960E+02   -0.71642E-03   -0.63420E-05    48   0.458E-02    0.938E-03
RMM:   9    -0.178458079759E+02   -0.95280E-04   -0.15910E-05    43   0.283E-02    0.481E-03
RMM:  10    -0.178458604500E+02   -0.52474E-04   -0.51527E-06    40   0.151E-02    0.308E-03
RMM:  11    -0.178459478168E+02   -0.87367E-04   -0.10211E-05    40   0.153E-02    0.228E-03
RMM:  12    -0.178459953631E+02   -0.47546E-04   -0.51074E-06    38   0.119E-02    0.172E-03
RMM:  13    -0.178460411699E+02   -0.45807E-04   -0.50883E-06    38   0.109E-02    0.138E-03
RMM:  14    -0.178460542995E+02   -0.13130E-04   -0.19601E-06    36   0.810E-03    0.600E-04
RMM:  15    -0.178460616742E+02   -0.73747E-05   -0.56155E-07    32   0.509E-03    0.407E-04
RMM:  16    -0.178460660660E+02   -0.43918E-05   -0.52636E-07    31   0.487E-03    0.342E-04
RMM:  17    -0.178460678572E+02   -0.17912E-05   -0.18817E-07    28   0.390E-03    0.175E-04
RMM:  18    -0.178460693550E+02   -0.14979E-05   -0.13229E-07    26   0.302E-03    0.151E-04
RMM:  19    -0.178460700341E+02   -0.67904E-06   -0.73595E-08    22   0.273E-03
  15 F= -.17856393E+02 E0= -.17856393E+02  d E =-.113238E+00  mag=     1.0000
 curvature:  -1.04 expect dE=-0.854E+00 dE for cont linesearch -0.651E-01
 ZBRENT: increasing intervall
 opt :   0.4173  next Energy=   -17.991416 (dE=-0.248E+00)
 bond charge predicted
       N       E                     dE             d eps       ncg     rms          rms(c)
DAV:   1    -0.178852107228E+02   -0.39141E-01   -0.46431E+01    48   0.875E+01    0.291E+00
RMM:   2    -0.178893865630E+02   -0.41758E-02   -0.10521E+00    48   0.118E+01    0.153E+00
RMM:   3    -0.179159100373E+02   -0.26523E-01   -0.10173E-01    50   0.338E+00    0.919E-01
RMM:   4    -0.179240545053E+02   -0.81445E-02   -0.21828E-02    50   0.153E+00    0.470E-01
RMM:   5    -0.179432212786E+02   -0.19167E-01   -0.10286E-02    49   0.823E-01    0.209E-01
RMM:   6    -0.179544794899E+02   -0.11258E-01   -0.36351E-03    51   0.422E-01    0.153E-01
RMM:   7    -0.179633628699E+02   -0.88834E-02   -0.25507E-03    50   0.302E-01    0.141E-01
RMM:   8    -0.179706036169E+02   -0.72407E-02   -0.37862E-03    49   0.351E-01    0.127E-01
RMM:   9    -0.179772838422E+02   -0.66802E-02   -0.99973E-03    48   0.581E-01    0.132E-01
RMM:  10    -0.179809832143E+02   -0.36994E-02   -0.77700E-03    51   0.477E-01    0.153E-01
RMM:  11    -0.179789619498E+02    0.20213E-02   -0.11312E-03    48   0.277E-01    0.201E-01
RMM:  12    -0.179729407891E+02    0.60212E-02   -0.14720E-02    48   0.700E-01    0.258E-01
RMM:  13    -0.179527058432E+02    0.20235E-01   -0.68583E-02    48   0.149E+00    0.368E-01
RMM:  14    -0.179753356435E+02   -0.22630E-01   -0.44378E-02    48   0.142E+00    0.130E-01
RMM:  15    -0.179889560607E+02   -0.13620E-01   -0.65920E-02    48   0.152E+00    0.195E-01
RMM:  16    -0.180082156057E+02   -0.19260E-01   -0.66250E-02    50   0.142E+00    0.334E-01
RMM:  17    -0.180131553864E+02   -0.49398E-02   -0.76069E-03    50   0.550E-01    0.375E-01
RMM:  18    -0.180075010946E+02    0.56543E-02   -0.19418E-03    48   0.324E-01    0.389E-01
RMM:  19    -0.179913265829E+02    0.16175E-01   -0.28139E-02    48   0.977E-01    0.392E-01
RMM:  20    -0.179930213628E+02   -0.16948E-02   -0.51192E-03    50   0.398E-01    0.326E-01
RMM:  21    -0.179884290155E+02    0.45923E-02   -0.59788E-03    48   0.447E-01    0.296E-01
RMM:  22    -0.179785228697E+02    0.99061E-02   -0.24936E-02    48   0.920E-01    0.286E-01
RMM:  23    -0.179795981557E+02   -0.10753E-02   -0.57363E-03    50   0.470E-01    0.253E-01
RMM:  24    -0.179803227001E+02   -0.72454E-03   -0.51958E-04    55   0.130E-01    0.239E-01
RMM:  25    -0.179799866694E+02    0.33603E-03   -0.13975E-04    48   0.560E-02    0.240E-01
RMM:  26    -0.179798931099E+02    0.93559E-04   -0.30444E-05    46   0.294E-02    0.240E-01
RMM:  27    -0.179798941976E+02   -0.10877E-05   -0.33823E-06    36   0.130E-02    0.240E-01
RMM:  28    -0.179803757895E+02   -0.48159E-03   -0.38389E-05    44   0.411E-02    0.243E-01
RMM:  29    -0.179840885656E+02   -0.37128E-02   -0.49329E-03    48   0.404E-01    0.236E-01
RMM:  30    -0.179835925798E+02    0.49599E-03   -0.23807E-04    50   0.115E-01    0.248E-01
RMM:  31    -0.179837193145E+02   -0.12673E-03   -0.46159E-05    44   0.300E-02    0.253E-01
RMM:  32    -0.179842859342E+02   -0.56662E-03   -0.11465E-04    48   0.612E-02    0.251E-01
RMM:  33    -0.179825408230E+02    0.17451E-02   -0.61543E-04    48   0.157E-01    0.264E-01
RMM:  34    -0.179822067539E+02    0.33407E-03   -0.20365E-04    52   0.841E-02    0.275E-01
RMM:  35    -0.179822725430E+02   -0.65789E-04   -0.22937E-05    47   0.367E-02    0.274E-01
RMM:  36    -0.179856094329E+02   -0.33369E-02   -0.35382E-03    48   0.360E-01    0.281E-01
RMM:  37    -0.179833885723E+02    0.22209E-02   -0.93892E-04    48   0.233E-01    0.413E-01
RMM:  38    -0.179825482378E+02    0.84033E-03   -0.46943E-04    50   0.138E-01    0.437E-01
RMM:  39    -0.179751715894E+02    0.73766E-02   -0.11171E-02    48   0.613E-01    0.430E-01
RMM:  40    -0.179771196149E+02   -0.19480E-02   -0.82128E-04    50   0.188E-01    0.389E-01
RMM:  41    -0.179791506579E+02   -0.20310E-02   -0.79758E-04    48   0.188E-01    0.363E-01
RMM:  42    -0.179812350453E+02   -0.20844E-02   -0.17208E-03    49   0.244E-01    0.337E-01
RMM:  43    -0.179870674213E+02   -0.58324E-02   -0.13781E-02    48   0.682E-01    0.333E-01
RMM:  44    -0.179906892018E+02   -0.36218E-02   -0.66053E-03    50   0.450E-01    0.408E-01
RMM:  45    -0.179933844099E+02   -0.26952E-02   -0.29050E-03    52   0.311E-01    0.446E-01
RMM:  46    -0.179941632208E+02   -0.77881E-03   -0.53705E-04    50   0.155E-01    0.466E-01
RMM:  47    -0.179960178776E+02   -0.18547E-02   -0.82954E-04    48   0.163E-01    0.478E-01
RMM:  48    -0.179958426023E+02    0.17528E-03   -0.11397E-04    46   0.774E-02    0.489E-01
RMM:  49    -0.179958310965E+02    0.11506E-04   -0.16013E-05    45   0.198E-02    0.493E-01
RMM:  50    -0.179958763800E+02   -0.45284E-04   -0.31151E-06    37   0.113E-02    0.493E-01
RMM:  51    -0.179957179309E+02    0.15845E-03   -0.35471E-06    36   0.139E-02    0.491E-01
RMM:  52    -0.179945518679E+02    0.11661E-02   -0.20999E-04    48   0.869E-02    0.486E-01
RMM:  53    -0.179942778556E+02    0.27401E-03   -0.78421E-05    46   0.461E-02    0.505E-01
RMM:  54    -0.179941940778E+02    0.83778E-04   -0.23433E-05    46   0.295E-02    0.523E-01
RMM:  55    -0.179947227809E+02   -0.52870E-03   -0.43514E-05    47   0.449E-02    0.534E-01
RMM:  56    -0.179953736372E+02   -0.65086E-03   -0.93382E-05    48   0.589E-02    0.543E-01
RMM:  57    -0.179955795302E+02   -0.20589E-03   -0.30376E-05    46   0.319E-02    0.553E-01
RMM:  58    -0.179962296028E+02   -0.65007E-03   -0.81962E-05    47   0.542E-02    0.557E-01
RMM:  59    -0.179973040385E+02   -0.10744E-02   -0.23040E-04    48   0.894E-02    0.557E-01
RMM:  60    -0.179987957421E+02   -0.14917E-02   -0.51113E-04    50   0.126E-01    0.570E-01
RMM:  61    -0.179983866125E+02    0.40913E-03   -0.22589E-05    46   0.527E-02    0.574E-01
RMM:  62    -0.179979223462E+02    0.46427E-03   -0.34812E-05    47   0.454E-02    0.558E-01
RMM:  63    -0.179978456501E+02    0.76696E-04   -0.37032E-06    36   0.166E-02    0.559E-01
RMM:  64    -0.179982719186E+02   -0.42627E-03   -0.19131E-05    44   0.287E-02    0.557E-01
RMM:  65    -0.179982928280E+02   -0.20909E-04   -0.27077E-06    34   0.102E-02    0.559E-01
RMM:  66    -0.179989989444E+02   -0.70612E-03   -0.71056E-05    46   0.487E-02    0.557E-01
RMM:  67    -0.180024343402E+02   -0.34354E-02   -0.16699E-03    48   0.232E-01    0.472E-01
RMM:  68    -0.180000310359E+02    0.24033E-02   -0.36602E-04    48   0.150E-01    0.487E-01
RMM:  69    -0.179992910705E+02    0.73997E-03   -0.12379E-04    50   0.754E-02    0.485E-01
RMM:  70    -0.179995117615E+02   -0.22069E-03   -0.51404E-06    40   0.315E-02    0.479E-01
RMM:  71    -0.179995310661E+02   -0.19305E-04   -0.74055E-07    32   0.791E-03    0.479E-01
RMM:  72    -0.180004038057E+02   -0.87274E-03   -0.93549E-05    48   0.589E-02    0.476E-01
RMM:  73    -0.180007528092E+02   -0.34900E-03   -0.44537E-05    46   0.352E-02    0.482E-01
RMM:  74    -0.179964350273E+02    0.43178E-02   -0.21120E-03    48   0.277E-01    0.472E-01
RMM:  75    -0.179929824597E+02    0.34526E-02   -0.27890E-03    48   0.297E-01    0.448E-01
RMM:  76    -0.179900043307E+02    0.29781E-02   -0.34869E-03    50   0.322E-01    0.396E-01
RMM:  77    -0.179833138398E+02    0.66905E-02   -0.10069E-02    48   0.581E-01    0.377E-01
RMM:  78    -0.179892275203E+02   -0.59137E-02   -0.30829E-03    48   0.429E-01    0.358E-01
RMM:  79    -0.179926149624E+02   -0.33874E-02   -0.33044E-03    49   0.363E-01    0.400E-01
RMM:  80    -0.179958865580E+02   -0.32716E-02   -0.30779E-03    49   0.327E-01    0.452E-01
RMM:  81    -0.179975162290E+02   -0.16297E-02   -0.11169E-03    52   0.186E-01    0.492E-01
RMM:  82    -0.179669221416E+02    0.30594E-01   -0.98794E-02    48   0.187E+00    0.484E-01
RMM:  83    -0.179693360132E+02   -0.24139E-02   -0.29449E-02    50   0.879E-01    0.394E-01
RMM:  84    -0.179737765524E+02   -0.44405E-02   -0.23639E-03    50   0.413E-01    0.465E-01
RMM:  85    -0.179733211955E+02    0.45536E-03   -0.43431E-04    56   0.116E-01    0.453E-01
RMM:  86    -0.179643802672E+02    0.89409E-02   -0.12160E-02    48   0.644E-01    0.474E-01
RMM:  87    -0.179541126246E+02    0.10268E-01   -0.14905E-02    48   0.675E-01    0.507E-01
RMM:  88    -0.179570425195E+02   -0.29299E-02   -0.13745E-03    50   0.245E-01    0.469E-01
RMM:  89    -0.179687026179E+02   -0.11660E-01   -0.16621E-02    48   0.765E-01    0.367E-01
RMM:  90    -0.179633759578E+02    0.53267E-02   -0.23341E-03    48   0.372E-01    0.423E-01
RMM:  91    -0.179611197361E+02    0.22562E-02   -0.94271E-04    50   0.194E-01    0.428E-01
RMM:  92    -0.179367149474E+02    0.24405E-01   -0.28209E-02    48   0.974E-01    0.581E-01
RMM:  93    -0.179460534996E+02   -0.93386E-02   -0.10932E-03    48   0.287E-01    0.502E-01
RMM:  94    -0.179607970596E+02   -0.14744E-01   -0.14360E-02    48   0.699E-01    0.365E-01
RMM:  95    -0.179613548987E+02   -0.55784E-03   -0.10541E-03    50   0.191E-01    0.403E-01
RMM:  96    -0.179613507127E+02    0.41859E-05   -0.10426E-04    52   0.565E-02    0.409E-01
RMM:  97    -0.179573679948E+02    0.39827E-02   -0.12219E-03    48   0.207E-01    0.449E-01
RMM:  98    -0.179566381843E+02    0.72981E-03   -0.27375E-04    50   0.886E-02    0.448E-01
RMM:  99    -0.179573283687E+02   -0.69018E-03   -0.20145E-05    44   0.412E-02    0.442E-01
RMM: 100    -0.179570741997E+02    0.25417E-03   -0.67970E-06    40   0.206E-02
  16 F= -.17967854E+02 E0= -.17967854E+02  d E =-.224699E+00  mag=     1.0000
 curvature:  -2.15 expect dE=-0.231E+01 dE for cont linesearch -0.406E-02
 trial: gam= 0.55030 g(F)=  0.603E+00 g(S)=  0.468E+00 ort = 0.108E+00 (trialstep = 0.117E+00)
 search vector abs. value=  0.305E+01
 bond charge predicted
       N       E                     dE             d eps       ncg     rms          rms(c)
DAV:   1    -0.180805237853E+02   -0.12320E+00   -0.36147E+00    48   0.244E+01    0.141E+00
RMM:   2    -0.180865152707E+02   -0.59915E-02   -0.14031E-01    48   0.394E+00    0.713E-01
RMM:   3    -0.180811807355E+02    0.53345E-02   -0.25612E-02    51   0.135E+00    0.490E-01
RMM:   4    -0.180823084998E+02   -0.11278E-02   -0.15360E-02    49   0.855E-01    0.294E-01
RMM:   5    -0.180935790128E+02   -0.11271E-01   -0.12736E-02    50   0.688E-01    0.226E-01
RMM:   6    -0.181044589900E+02   -0.10880E-01   -0.75604E-03    51   0.503E-01    0.206E-01
RMM:   7    -0.181182913770E+02   -0.13832E-01   -0.11789E-02    49   0.602E-01    0.185E-01
RMM:   8    -0.181350938016E+02   -0.16802E-01   -0.25316E-02    48   0.911E-01    0.172E-01
RMM:   9    -0.181456400100E+02   -0.10546E-01   -0.19082E-02    50   0.732E-01    0.176E-01
RMM:  10    -0.181423140287E+02    0.33260E-02   -0.14550E-03    48   0.361E-01    0.241E-01
RMM:  11    -0.181557244107E+02   -0.13410E-01   -0.38329E-02    48   0.114E+00    0.147E-01
RMM:  12    -0.181668587225E+02   -0.11134E-01   -0.26041E-02    50   0.831E-01    0.206E-01
RMM:  13    -0.181677678726E+02   -0.90915E-03   -0.22097E-03    48   0.414E-01    0.221E-01
RMM:  14    -0.181728420411E+02   -0.50742E-02   -0.46766E-02    48   0.127E+00    0.192E-01
RMM:  15    -0.181778360501E+02   -0.49940E-02   -0.41724E-03    50   0.451E-01    0.825E-02
RMM:  16    -0.181780575807E+02   -0.22153E-03   -0.61485E-04    54   0.121E-01    0.837E-02
RMM:  17    -0.181780976791E+02   -0.40098E-04   -0.16604E-04    48   0.892E-02    0.611E-02
RMM:  18    -0.181780576417E+02    0.40037E-04   -0.74917E-04    50   0.164E-01    0.709E-02
RMM:  19    -0.181781865622E+02   -0.12892E-03   -0.33147E-04    48   0.121E-01    0.998E-03
RMM:  20    -0.181782149944E+02   -0.28432E-04   -0.15153E-05    44   0.518E-02    0.369E-03
RMM:  21    -0.181782195341E+02   -0.45398E-05   -0.21955E-05    44   0.195E-02    0.656E-03
RMM:  22    -0.181782306446E+02   -0.11111E-04   -0.29497E-06    37   0.131E-02    0.286E-03
RMM:  23    -0.181782383242E+02   -0.76796E-05   -0.10877E-05    45   0.189E-02    0.646E-03
RMM:  24    -0.181782443107E+02   -0.59865E-05   -0.30673E-06    37   0.140E-02    0.265E-03
RMM:  25    -0.181782469656E+02   -0.26549E-05   -0.26967E-07    33   0.685E-03    0.138E-03
RMM:  26    -0.181782495078E+02   -0.25422E-05   -0.29546E-07    31   0.409E-03    0.339E-03
RMM:  27    -0.181782507846E+02   -0.12768E-05   -0.45037E-07    31   0.511E-03    0.169E-03
RMM:  28    -0.181782512619E+02   -0.47727E-06   -0.12566E-07    28   0.383E-03
  17 F= -.18189280E+02 E0= -.18189280E+02  d E =-.221426E+00  mag=     1.0000
 ZBRENT: can't locate minimum, use default step
 trial-energy change:   -0.221426  1 .order   -0.122649   -0.132037   -0.113260
 step:   0.4674(harm=  0.8216)  dis= 0.06515  next Energy=   -18.432073 (dE=-0.464E+00)
 bond charge predicted
       N       E                     dE             d eps       ncg     rms          rms(c)
DAV:   1    -0.183385411759E+02   -0.16029E+00   -0.32132E+01    48   0.730E+01    0.434E+00
RMM:   2    -0.182889769967E+02    0.49564E-01   -0.10755E+00    48   0.116E+01    0.214E+00
RMM:   3    -0.182503267329E+02    0.38650E-01   -0.98820E-02    50   0.360E+00    0.119E+00
RMM:   4    -0.182834970503E+02   -0.33170E-01   -0.33305E-02    50   0.185E+00    0.364E-01
RMM:   5    -0.183107167846E+02   -0.27220E-01   -0.90373E-03    49   0.918E-01    0.172E-01
RMM:   6    -0.183217384224E+02   -0.11022E-01   -0.18541E-03    49   0.376E-01    0.912E-02
RMM:   7    -0.183261479456E+02   -0.44095E-02   -0.10097E-03    52   0.195E-01    0.522E-02
RMM:   8    -0.183284574218E+02   -0.23095E-02   -0.63376E-04    49   0.141E-01    0.268E-02
RMM:   9    -0.183293744598E+02   -0.91704E-03   -0.27693E-04    50   0.842E-02    0.184E-02
RMM:  10    -0.183299181391E+02   -0.54368E-03   -0.14692E-04    48   0.605E-02    0.987E-03
RMM:  11    -0.183303384118E+02   -0.42027E-03   -0.15060E-04    48   0.617E-02    0.701E-03
RMM:  12    -0.183304455010E+02   -0.10709E-03   -0.24751E-05    43   0.305E-02    0.483E-03
RMM:  13    -0.183305487744E+02   -0.10327E-03   -0.18057E-05    43   0.215E-02    0.286E-03
RMM:  14    -0.183305982630E+02   -0.49489E-04   -0.78277E-06    42   0.161E-02    0.198E-03
RMM:  15    -0.183306255951E+02   -0.27332E-04   -0.18007E-06    34   0.922E-03    0.131E-03
RMM:  16    -0.183306449290E+02   -0.19334E-04   -0.21204E-06    35   0.791E-03    0.848E-04
RMM:  17    -0.183306510365E+02   -0.61076E-05   -0.85637E-07    32   0.635E-03    0.463E-04
RMM:  18    -0.183306531419E+02   -0.21053E-05   -0.17802E-07    32   0.453E-03    0.339E-04
RMM:  19    -0.183306544299E+02   -0.12881E-05   -0.15017E-07    27   0.299E-03    0.194E-04
RMM:  20    -0.183306552366E+02   -0.80669E-06   -0.67110E-08    22   0.266E-03
  18 F= -.18342672E+02 E0= -.18342672E+02  d E =-.374818E+00  mag=     1.0000
 curvature:  -0.83 expect dE=-0.424E+01 dE for cont linesearch -0.273E-01
 ZBRENT: interpolating
 opt :   0.3810  next Energy=   -18.356369 (dE=-0.389E+00)
 bond charge predicted
       N       E                     dE             d eps       ncg     rms          rms(c)
DAV:   1    -0.183422856404E+02   -0.11631E-01   -0.20009E+00    48   0.187E+01    0.114E+00
RMM:   2    -0.183398078520E+02    0.24778E-02   -0.62101E-02    50   0.272E+00    0.608E-01
RMM:   3    -0.183370671314E+02    0.27407E-02   -0.48256E-03    50   0.816E-01    0.348E-01
RMM:   4    -0.183371891115E+02   -0.12198E-03   -0.16691E-03    48   0.467E-01    0.877E-02
RMM:   5    -0.183386815972E+02   -0.14925E-02   -0.54556E-04    50   0.241E-01    0.382E-02
RMM:   6    -0.183390683709E+02   -0.38677E-03   -0.63577E-05    50   0.773E-02    0.228E-02
RMM:   7    -0.183392293186E+02   -0.16095E-03   -0.29661E-05    48   0.426E-02    0.133E-02
RMM:   8    -0.183393250396E+02   -0.95721E-04   -0.20495E-05    45   0.320E-02    0.670E-03
RMM:   9    -0.183393696147E+02   -0.44575E-04   -0.67254E-06    41   0.177E-02    0.449E-03
RMM:  10    -0.183394293873E+02   -0.59773E-04   -0.84883E-06    43   0.173E-02    0.250E-03
RMM:  11    -0.183394655161E+02   -0.36129E-04   -0.70710E-06    42   0.153E-02    0.155E-03
RMM:  12    -0.183394807934E+02   -0.15277E-04   -0.13410E-06    35   0.950E-03    0.974E-04
RMM:  13    -0.183394988227E+02   -0.18029E-04   -0.25754E-06    37   0.968E-03    0.667E-04
RMM:  14    -0.183395032766E+02   -0.44539E-05   -0.45075E-07    33   0.740E-03    0.392E-04
RMM:  15    -0.183395059528E+02   -0.26762E-05   -0.20326E-07    30   0.484E-03    0.340E-04
RMM:  16    -0.183395091377E+02   -0.31849E-05   -0.19885E-07    30   0.403E-03    0.218E-04
RMM:  17    -0.183395108605E+02   -0.17228E-05   -0.14780E-07    29   0.349E-03    0.111E-04
RMM:  18    -0.183395111761E+02   -0.31569E-06   -0.50622E-08    24   0.290E-03
  19 F= -.18351251E+02 E0= -.18351251E+02  d E =-.383397E+00  mag=     1.0000
 curvature:  -0.42 expect dE=-0.120E+01 dE for cont linesearch -0.210E-02
 trial: gam= 2.51352 g(F)=  0.276E+01 g(S)=  0.113E+00 ort = 0.124E+00 (trialstep = 0.227E-01)
 search vector abs. value=  0.228E+02
 bond charge predicted
       N       E                     dE             d eps       ncg     rms          rms(c)
DAV:   1    -0.184119443014E+02   -0.72433E-01   -0.90495E-01    48   0.125E+01    0.542E-01
RMM:   2    -0.184107902608E+02    0.11540E-02   -0.20714E-02    48   0.166E+00    0.297E-01
RMM:   3    -0.184101818041E+02    0.60846E-03   -0.23204E-03    50   0.597E-01    0.162E-01
RMM:   4    -0.184101942452E+02   -0.12441E-04   -0.78696E-04    51   0.295E-01    0.634E-02
RMM:   5    -0.184108607821E+02   -0.66654E-03   -0.23021E-04    50   0.143E-01    0.322E-02
RMM:   6    -0.184111570258E+02   -0.29624E-03   -0.44491E-05    49   0.588E-02    0.151E-02
RMM:   7    -0.184112864161E+02   -0.12939E-03   -0.15463E-05    44   0.301E-02    0.796E-03
RMM:   8    -0.184113756453E+02   -0.89229E-04   -0.12327E-05    41   0.215E-02    0.392E-03
RMM:   9    -0.184114013645E+02   -0.25719E-04   -0.33583E-06    36   0.134E-02    0.288E-03
RMM:  10    -0.184114193034E+02   -0.17939E-04   -0.19438E-06    35   0.100E-02    0.168E-03
RMM:  11    -0.184114401410E+02   -0.20838E-04   -0.40200E-06    40   0.117E-02    0.718E-04
RMM:  12    -0.184114453163E+02   -0.51753E-05   -0.55916E-07    33   0.742E-03    0.491E-04
RMM:  13    -0.184114496796E+02   -0.43633E-05   -0.52860E-07    33   0.604E-03    0.484E-04
RMM:  14    -0.184114520588E+02   -0.23792E-05   -0.33528E-07    32   0.604E-03    0.264E-04
RMM:  15    -0.184114533629E+02   -0.13041E-05   -0.20930E-07    29   0.472E-03    0.236E-04
RMM:  16    -0.184114543701E+02   -0.10072E-05   -0.12844E-07    26   0.381E-03    0.155E-04
RMM:  17    -0.184114552694E+02   -0.89931E-06   -0.10830E-07    24   0.313E-03
  20 F= -.18423412E+02 E0= -.18423412E+02  d E =-.721613E-01  mag=     1.0000
 ZBRENT: can't locate minimum, use default step
 trial-energy change:   -0.072161  1 .order   -0.072269   -0.072456   -0.072082
 step:   0.0909(harm=  4.4036)  dis= 0.04321  next Energy=   -25.369016 (dE=-0.702E+01)
 bond charge predicted
       N       E                     dE             d eps       ncg     rms          rms(c)
DAV:   1    -0.186255375905E+02   -0.21408E+00   -0.80793E+00    48   0.374E+01    0.164E+00
RMM:   2    -0.186164635438E+02    0.90740E-02   -0.18875E-01    48   0.507E+00    0.882E-01
RMM:   3    -0.186136523833E+02    0.28112E-02   -0.20087E-02    50   0.179E+00    0.488E-01
RMM:   4    -0.186149170877E+02   -0.12647E-02   -0.65179E-03    51   0.896E-01    0.190E-01
RMM:   5    -0.186179925491E+02   -0.30755E-02   -0.16332E-03    50   0.410E-01    0.897E-02
RMM:   6    -0.186191663010E+02   -0.11738E-02   -0.30692E-04    49   0.166E-01    0.407E-02
RMM:   7    -0.186195209346E+02   -0.35463E-03   -0.67914E-05    48   0.834E-02    0.189E-02
RMM:   8    -0.186197037712E+02   -0.18284E-03   -0.34172E-05    47   0.406E-02    0.836E-03
RMM:   9    -0.186197708273E+02   -0.67056E-04   -0.93918E-06    42   0.243E-02    0.450E-03
RMM:  10    -0.186198279438E+02   -0.57117E-04   -0.51732E-06    39   0.141E-02    0.244E-03
RMM:  11    -0.186198708024E+02   -0.42859E-04   -0.44108E-06    39   0.125E-02    0.149E-03
RMM:  12    -0.186198906688E+02   -0.19866E-04   -0.15317E-06    34   0.939E-03    0.117E-03
RMM:  13    -0.186199114749E+02   -0.20806E-04   -0.24731E-06    38   0.947E-03    0.837E-04
RMM:  14    -0.186199208467E+02   -0.93718E-05   -0.96970E-07    33   0.826E-03    0.542E-04
RMM:  15    -0.186199238244E+02   -0.29777E-05   -0.36699E-07    31   0.686E-03    0.340E-04
RMM:  16    -0.186199261988E+02   -0.23744E-05   -0.23781E-07    29   0.469E-03    0.247E-04
RMM:  17    -0.186199283955E+02   -0.21967E-05   -0.22196E-07    29   0.400E-03    0.141E-04
RMM:  18    -0.186199288973E+02   -0.50177E-06   -0.89119E-08    25   0.345E-03
  21 F= -.18632592E+02 E0= -.18632592E+02  d E =-.281341E+00  mag=     1.0000
 curvature:  -0.49 expect dE=-0.203E+01 dE for cont linesearch -0.190E+00
 ZBRENT: increasing intervall
 opt :   0.2273  next Energy=   -19.014803 (dE=-0.664E+00)
 bond charge predicted
       N       E                     dE             d eps       ncg     rms          rms(c)
DAV:   1    -0.189884691341E+02   -0.36854E+00   -0.31960E+01    48   0.746E+01    0.338E+00
RMM:   2    -0.189549516282E+02    0.33518E-01   -0.77387E-01    48   0.105E+01    0.176E+00
RMM:   3    -0.189499919356E+02    0.49597E-02   -0.77868E-02    49   0.371E+00    0.101E+00
RMM:   4    -0.189544908615E+02   -0.44989E-02   -0.25721E-02    51   0.176E+00    0.405E-01
RMM:   5    -0.189617620634E+02   -0.72712E-02   -0.55181E-03    52   0.842E-01    0.150E-01
RMM:   6    -0.189632290953E+02   -0.14670E-02   -0.11239E-03    49   0.328E-01    0.750E-02
RMM:   7    -0.189636396914E+02   -0.41060E-03   -0.21858E-04    49   0.175E-01    0.324E-02
RMM:   8    -0.189638595165E+02   -0.21983E-03   -0.55294E-05    48   0.621E-02    0.162E-02
RMM:   9    -0.189640101355E+02   -0.15062E-03   -0.26698E-05    46   0.400E-02    0.766E-03
RMM:  10    -0.189640940027E+02   -0.83867E-04   -0.88665E-06    42   0.230E-02    0.476E-03
RMM:  11    -0.189642250615E+02   -0.13106E-03   -0.16872E-05    44   0.214E-02    0.339E-03
RMM:  12    -0.189642740925E+02   -0.49031E-04   -0.55385E-06    39   0.152E-02    0.220E-03
RMM:  13    -0.189643187628E+02   -0.44670E-04   -0.59729E-06    40   0.127E-02    0.148E-03
RMM:  14    -0.189643342582E+02   -0.15495E-04   -0.18321E-06    37   0.105E-02    0.787E-04
RMM:  15    -0.189643419233E+02   -0.76651E-05   -0.68489E-07    33   0.675E-03    0.637E-04
RMM:  16    -0.189643463829E+02   -0.44596E-05   -0.30073E-07    33   0.617E-03    0.356E-04
RMM:  17    -0.189643500682E+02   -0.36853E-05   -0.29310E-07    28   0.436E-03    0.264E-04
RMM:  18    -0.189643516599E+02   -0.15917E-05   -0.19939E-07    28   0.415E-03    0.148E-04
RMM:  19    -0.189643520669E+02   -0.40708E-06   -0.96017E-08    23   0.347E-03
  22 F= -.18978701E+02 E0= -.18978701E+02  d E =-.627451E+00  mag=     1.0000
 curvature:  -0.98 expect dE=-0.727E+01 dE for cont linesearch -0.201E+00
 ZBRENT: increasing intervall
 opt :   0.5001  next Energy=   -19.344589 (dE=-0.993E+00)
 bond charge predicted
       N       E                     dE             d eps       ncg     rms          rms(c)
DAV:   1    -0.191562418884E+02   -0.19189E+00   -0.12612E+02    48   0.151E+02    0.742E+00
RMM:   2    -0.190117443697E+02    0.14450E+00   -0.35005E+00    48   0.229E+01    0.356E+00
RMM:   3    -0.190254875846E+02   -0.13743E-01   -0.45414E-01    50   0.849E+00    0.205E+00
RMM:   4    -0.190367618667E+02   -0.11274E-01   -0.72656E-02    48   0.326E+00    0.874E-01
RMM:   5    -0.190549981534E+02   -0.18236E-01   -0.17921E-02    49   0.215E+00    0.280E-01
RMM:   6    -0.190576731411E+02   -0.26750E-02   -0.26370E-03    51   0.553E-01    0.174E-01
RMM:   7    -0.190585697186E+02   -0.89658E-03   -0.10282E-03    48   0.359E-01    0.652E-02
RMM:   8    -0.190590562187E+02   -0.48650E-03   -0.18560E-04    48   0.161E-01    0.332E-02
RMM:   9    -0.190594609388E+02   -0.40472E-03   -0.10522E-04    48   0.810E-02    0.212E-02
RMM:  10    -0.190597128436E+02   -0.25190E-03   -0.43860E-05    48   0.540E-02    0.116E-02
RMM:  11    -0.190599460865E+02   -0.23324E-03   -0.42921E-05    47   0.444E-02    0.816E-03
RMM:  12    -0.190601197725E+02   -0.17369E-03   -0.32029E-05    44   0.329E-02    0.508E-03
RMM:  13    -0.190601956611E+02   -0.75889E-04   -0.15574E-05    42   0.262E-02    0.325E-03
RMM:  14    -0.190602393640E+02   -0.43703E-04   -0.61426E-06    39   0.202E-02    0.206E-03
RMM:  15    -0.190602569996E+02   -0.17636E-04   -0.21888E-06    37   0.133E-02    0.892E-04
RMM:  16    -0.190602639067E+02   -0.69072E-05   -0.64912E-07    33   0.796E-03    0.703E-04
RMM:  17    -0.190602683377E+02   -0.44310E-05   -0.44298E-07    30   0.756E-03    0.784E-04
RMM:  18    -0.190602706987E+02   -0.23609E-05   -0.33596E-07    31   0.577E-03    0.258E-04
RMM:  19    -0.190602718141E+02   -0.11154E-05   -0.18295E-07    28   0.488E-03    0.253E-04
RMM:  20    -0.190602723135E+02   -0.49947E-06   -0.11275E-07    24   0.339E-03
  23 F= -.19077243E+02 E0= -.19077243E+02  d E =-.725993E+00  mag=     1.0000
 curvature:  -1.78 expect dE=-0.466E+02 dE for cont linesearch -0.661E-01
 ZBRENT: bracketing found
 ZBRENT: interpolating
 opt :   0.4188  next Energy=   -19.114664 (dE=-0.763E+00)
 bond charge predicted
       N       E                     dE             d eps       ncg     rms          rms(c)
DAV:   1    -0.191375726612E+02   -0.77301E-01   -0.11933E+01    48   0.478E+01    0.224E+00
RMM:   2    -0.191190461848E+02    0.18526E-01   -0.22606E-01    48   0.612E+00    0.110E+00
RMM:   3    -0.191179625673E+02    0.10836E-02   -0.26904E-02    48   0.224E+00    0.624E-01
RMM:   4    -0.191201809948E+02   -0.22184E-02   -0.79088E-03    48   0.106E+00    0.251E-01
RMM:   5    -0.191221496572E+02   -0.19687E-02   -0.15444E-03    48   0.601E-01    0.866E-02
RMM:   6    -0.191223866632E+02   -0.23701E-03   -0.29336E-04    52   0.181E-01    0.517E-02
RMM:   7    -0.191224887455E+02   -0.10208E-03   -0.66233E-05    48   0.100E-01    0.216E-02
RMM:   8    -0.191225856903E+02   -0.96945E-04   -0.16695E-05    46   0.452E-02    0.101E-02
RMM:   9    -0.191226693538E+02   -0.83664E-04   -0.61218E-06    40   0.206E-02    0.602E-03
RMM:  10    -0.191227564630E+02   -0.87109E-04   -0.51281E-06    40   0.170E-02    0.340E-03
RMM:  11    -0.191228193998E+02   -0.62937E-04   -0.38109E-06    38   0.142E-02    0.249E-03
RMM:  12    -0.191228580245E+02   -0.38625E-04   -0.23801E-06    38   0.119E-02    0.123E-03
RMM:  13    -0.191228984387E+02   -0.40414E-04   -0.36645E-06    38   0.120E-02    0.950E-04
RMM:  14    -0.191229091499E+02   -0.10711E-04   -0.79627E-07    33   0.114E-02    0.449E-04
RMM:  15    -0.191229158110E+02   -0.66611E-05   -0.57137E-07    32   0.740E-03    0.303E-04
RMM:  16    -0.191229199737E+02   -0.41626E-05   -0.35942E-07    30   0.704E-03    0.286E-04
RMM:  17    -0.191229217576E+02   -0.17840E-05   -0.22754E-07    29   0.500E-03    0.119E-04
RMM:  18    -0.191229225426E+02   -0.78501E-06   -0.13982E-07    27   0.423E-03
  24 F= -.19139523E+02 E0= -.19139523E+02  d E =-.788273E+00  mag=     1.0000
 curvature:  -1.01 expect dE=-0.184E+02 dE for cont linesearch -0.993E-03
 trial: gam= 4.12464 g(F)=  0.164E+02 g(S)=  0.177E+01 ort = 0.150E+00 (trialstep = 0.571E-02)
 search vector abs. value=  0.407E+03
 bond charge predicted
       N       E                     dE             d eps       ncg     rms          rms(c)
DAV:   1    -0.192252048329E+02   -0.10228E+00   -0.12600E+00    48   0.155E+01    0.587E-01
RMM:   2    -0.192245385019E+02    0.66633E-03   -0.25648E-02    48   0.209E+00    0.352E-01
RMM:   3    -0.192243835324E+02    0.15497E-03   -0.33444E-03    48   0.791E-01    0.186E-01
RMM:   4    -0.192246406339E+02   -0.25710E-03   -0.10058E-03    48   0.392E-01    0.695E-02
RMM:   5    -0.192249175271E+02   -0.27689E-03   -0.14073E-04    51   0.180E-01    0.328E-02
RMM:   6    -0.192249570438E+02   -0.39517E-04   -0.34502E-05    48   0.640E-02    0.132E-02
RMM:   7    -0.192249791480E+02   -0.22104E-04   -0.56128E-06    45   0.347E-02    0.534E-03
RMM:   8    -0.192249891406E+02   -0.99926E-05   -0.14008E-06    35   0.126E-02    0.323E-03
RMM:   9    -0.192249961507E+02   -0.70101E-05   -0.63385E-07    33   0.929E-03    0.119E-03
RMM:  10    -0.192250009826E+02   -0.48319E-05   -0.45303E-07    33   0.697E-03    0.623E-04
RMM:  11    -0.192250048333E+02   -0.38507E-05   -0.33176E-07    32   0.579E-03    0.504E-04
RMM:  12    -0.192250088329E+02   -0.39996E-05   -0.44038E-07    33   0.577E-03    0.474E-04
RMM:  13    -0.192250107332E+02   -0.19003E-05   -0.24030E-07    31   0.568E-03    0.307E-04
RMM:  14    -0.192250114797E+02   -0.74642E-06   -0.12484E-07    24   0.422E-03
  25 F= -.19241762E+02 E0= -.19241762E+02  d E =-.102238E+00  mag=     1.0000
 ZBRENT: can't locate minimum, use default step
 trial-energy change:   -0.102238  1 .order   -0.102867   -0.107378   -0.098357
 step:   0.0228(harm=  0.0679)  dis= 0.04681  next Energy=   -19.778574 (dE=-0.639E+00)
 bond charge predicted
       N       E                     dE             d eps       ncg     rms          rms(c)
DAV:   1    -0.194771334764E+02   -0.25212E+00   -0.11274E+01    48   0.464E+01    0.172E+00
RMM:   2    -0.194707491501E+02    0.63843E-02   -0.23678E-01    48   0.634E+00    0.975E-01
RMM:   3    -0.194707477566E+02    0.13936E-05   -0.31178E-02    50   0.245E+00    0.531E-01
RMM:   4    -0.194722474198E+02   -0.14997E-02   -0.84408E-03    50   0.114E+00    0.217E-01
RMM:   5    -0.194740732170E+02   -0.18258E-02   -0.12885E-03    50   0.545E-01    0.932E-02
RMM:   6    -0.194742772514E+02   -0.20403E-03   -0.24008E-04    48   0.185E-01    0.393E-02
RMM:   7    -0.194743751466E+02   -0.97895E-04   -0.54259E-05    50   0.106E-01    0.170E-02
RMM:   8    -0.194744170872E+02   -0.41941E-04   -0.10212E-05    44   0.314E-02    0.100E-02
RMM:   9    -0.194744513400E+02   -0.34253E-04   -0.53998E-06    39   0.233E-02    0.394E-03
[...]
RMM:   7    -0.215301828959E+02   -0.10340E-03   -0.36005E-04    54   0.270E-01    0.639E-02
RMM:   8    -0.215302261874E+02   -0.43291E-04   -0.70373E-05    54   0.213E-01    0.330E-02
RMM:   9    -0.215302899874E+02   -0.63800E-04   -0.29012E-05    52   0.714E-02    0.227E-02
RMM:  10    -0.215303542821E+02   -0.64295E-04   -0.68551E-06    43   0.684E-02    0.191E-02
RMM:  11    -0.215304400578E+02   -0.85776E-04   -0.10303E-05    43   0.383E-02    0.207E-02
RMM:  12    -0.215304865415E+02   -0.46484E-04   -0.61640E-06    42   0.441E-02    0.682E-03
RMM:  13    -0.215305007230E+02   -0.14181E-04   -0.23503E-06    36   0.340E-02    0.505E-03
RMM:  14    -0.215305130042E+02   -0.12281E-04   -0.24080E-06    36   0.261E-02    0.310E-03
RMM:  15    -0.215305275343E+02   -0.14530E-04   -0.19992E-06    37   0.187E-02    0.285E-03
RMM:  16    -0.215305306126E+02   -0.30783E-05   -0.64727E-07    33   0.247E-02    0.184E-03
RMM:  17    -0.215305369832E+02   -0.63706E-05   -0.10477E-06    33   0.133E-02    0.274E-03
RMM:  18    -0.215305409059E+02   -0.39226E-05   -0.81006E-07    34   0.200E-02    0.143E-03
RMM:  19    -0.215305420399E+02   -0.11341E-05   -0.53442E-07    32   0.125E-02    0.116E-03
RMM:  20    -0.215305421681E+02   -0.12819E-06   -0.28179E-07    32   0.161E-02
 137 F= -.21544389E+02 E0= -.21544389E+02  d E =-.160343E-02  mag=     1.0000
 trial-energy change:   -0.001603  1 .order   -0.001602   -0.002273   -0.000931
 step:   0.5052(harm=  0.5052)  dis= 0.01149  next Energy=   -21.544710 (dE=-0.193E-02)
 bond charge predicted
       N       E                     dE             d eps       ncg     rms          rms(c)
DAV:   1    -0.215523563542E+02   -0.21814E-01   -0.10032E+00    72   0.225E+01    0.138E+00
RMM:   2    -0.215321441663E+02    0.20212E-01   -0.45250E-02    51   0.545E+00    0.378E-01
RMM:   3    -0.215302128389E+02    0.19313E-02   -0.22843E-02    59   0.200E+00    0.382E-01
RMM:   4    -0.215302837476E+02   -0.70909E-04   -0.18686E-03    57   0.111E+00    0.342E-01
RMM:   5    -0.215303727544E+02   -0.89007E-04   -0.23920E-04    59   0.204E-01    0.263E-01
RMM:   6    -0.215304641543E+02   -0.91400E-04   -0.21551E-04    54   0.205E-01    0.681E-02
RMM:   7    -0.215304994948E+02   -0.35341E-04   -0.12342E-04    55   0.253E-01    0.533E-02
RMM:   8    -0.215305212867E+02   -0.21792E-04   -0.62239E-05    55   0.881E-02    0.321E-02
RMM:   9    -0.215305439685E+02   -0.22682E-04   -0.88310E-06    41   0.723E-02    0.182E-02
RMM:  10    -0.215305843373E+02   -0.40369E-04   -0.53602E-06    41   0.475E-02    0.206E-02
RMM:  11    -0.215306389091E+02   -0.54572E-04   -0.57484E-06    41   0.369E-02    0.193E-02
RMM:  12    -0.215306590315E+02   -0.20122E-04   -0.25521E-06    36   0.337E-02    0.637E-03
RMM:  13    -0.215306670884E+02   -0.80569E-05   -0.16688E-06    35   0.324E-02    0.360E-03
RMM:  14    -0.215306796176E+02   -0.12529E-04   -0.21889E-06    36   0.233E-02    0.410E-03
RMM:  15    -0.215306887763E+02   -0.91586E-05   -0.14685E-06    35   0.212E-02    0.210E-03
RMM:  16    -0.215306940638E+02   -0.52876E-05   -0.11321E-06    34   0.199E-02    0.257E-03
RMM:  17    -0.215306965474E+02   -0.24836E-05   -0.73062E-07    33   0.233E-02    0.294E-03
RMM:  18    -0.215306974146E+02   -0.86717E-06   -0.53633E-07    32   0.156E-02
 138 F= -.21544717E+02 E0= -.21544717E+02  d E =-.193190E-02  mag=     1.0000
 curvature:  -6.74 expect dE=-0.266E-01 dE for cont linesearch -0.384E-08
 trial: gam= 0.57126 g(F)=  0.380E-02 g(S)=  0.149E-03 ort = 0.108E-04 (trialstep = 0.340E+00)
 search vector abs. value=  0.703E-01
 bond charge predicted
       N       E                     dE             d eps       ncg     rms          rms(c)
DAV:   1    -0.215478736697E+02   -0.17177E-01   -0.94206E-01    72   0.203E+01    0.129E+00
RMM:   2    -0.215320574977E+02    0.15816E-01   -0.38966E-02    52   0.492E+00    0.345E-01
RMM:   3    -0.215304445281E+02    0.16130E-02   -0.17645E-02    59   0.174E+00    0.371E-01
RMM:   4    -0.215306596107E+02   -0.21508E-03   -0.16701E-03    57   0.101E+00    0.310E-01
RMM:   5    -0.215307830254E+02   -0.12341E-03   -0.22918E-04    61   0.211E-01    0.233E-01
RMM:   6    -0.215308448245E+02   -0.61799E-04   -0.11694E-04    56   0.155E-01    0.721E-02
RMM:   7    -0.215309095523E+02   -0.64728E-04   -0.12168E-04    56   0.150E-01    0.465E-02
RMM:   8    -0.215309291367E+02   -0.19584E-04   -0.34850E-05    50   0.107E-01    0.265E-02
RMM:   9    -0.215309519258E+02   -0.22789E-04   -0.11044E-05    45   0.660E-02    0.190E-02
RMM:  10    -0.215309782733E+02   -0.26347E-04   -0.52356E-06    40   0.669E-02    0.109E-02
RMM:  11    -0.215310310875E+02   -0.52814E-04   -0.67415E-06    44   0.334E-02    0.172E-02
RMM:  12    -0.215310524708E+02   -0.21383E-04   -0.28942E-06    38   0.381E-02    0.800E-03
RMM:  13    -0.215310576127E+02   -0.51419E-05   -0.13410E-06    34   0.246E-02    0.391E-03
RMM:  14    -0.215310718952E+02   -0.14283E-04   -0.20302E-06    36   0.201E-02    0.374E-03
RMM:  15    -0.215310764110E+02   -0.45157E-05   -0.77454E-07    33   0.221E-02    0.203E-03
RMM:  16    -0.215310799344E+02   -0.35234E-05   -0.75151E-07    32   0.163E-02    0.236E-03
RMM:  17    -0.215310815144E+02   -0.15801E-05   -0.48568E-07    32   0.193E-02    0.268E-03
RMM:  18    -0.215310826929E+02   -0.11784E-05   -0.44324E-07    32   0.125E-02    0.163E-03
RMM:  19    -0.215310831181E+02   -0.42523E-06   -0.28727E-07    29   0.146E-02
 139 F= -.21545281E+02 E0= -.21545281E+02  d E =-.563801E-03  mag=     1.0000
 trial-energy change:   -0.000564  1 .order   -0.000555   -0.001345    0.000235
 step:   0.2906(harm=  0.2892)  dis= 0.00350  next Energy=   -21.545298 (dE=-0.581E-03)
 bond charge predicted
       N       E                     dE             d eps       ncg     rms          rms(c)
DAV:   1    -0.215314768318E+02   -0.39414E-03   -0.19705E-02    72   0.295E+00    0.196E-01
RMM:   2    -0.215311541636E+02    0.32267E-03   -0.79142E-04    52   0.712E-01    0.502E-02
RMM:   3    -0.215311213148E+02    0.32849E-04   -0.35905E-04    59   0.252E-01    0.566E-02
RMM:   4    -0.215311222645E+02   -0.94975E-06   -0.33694E-05    53   0.139E-01    0.482E-02
RMM:   5    -0.215311228064E+02   -0.54186E-06   -0.31592E-06    37   0.378E-02
 140 F= -.21545294E+02 E0= -.21545294E+02  d E =-.577291E-03  mag=     1.0000
 curvature:  -2.57 expect dE=-0.230E-02 dE for cont linesearch -0.473E-04
 ZBRENT: interpolating
 opt :   0.2257  next Energy=   -21.545331 (dE=-0.614E-03)
 bond charge predicted
       N       E                     dE             d eps       ncg     rms          rms(c)
DAV:   1    -0.215317671262E+02   -0.64486E-03   -0.34033E-02    72   0.389E+00    0.265E-01
RMM:   2    -0.215311757366E+02    0.59139E-03   -0.14497E-03    52   0.966E-01    0.672E-02
RMM:   3    -0.215311163861E+02    0.59350E-04   -0.66166E-04    59   0.343E-01    0.821E-02
RMM:   4    -0.215311190293E+02   -0.26432E-05   -0.60087E-05    57   0.186E-01    0.722E-02
RMM:   5    -0.215311209679E+02   -0.19386E-05   -0.58380E-06    42   0.392E-02    0.532E-02
RMM:   6    -0.215311215073E+02   -0.53939E-06   -0.79708E-06    47   0.551E-02
 141 F= -.21545259E+02 E0= -.21545259E+02  d E =-.541603E-03  mag=     1.0000
 curvature:  -2.00 expect dE=-0.150E-02 dE for cont linesearch -0.365E-05
 ZBRENT: interpolating
 opt :   0.1985  next Energy=   -21.545264 (dE=-0.547E-03)
 bond charge predicted
       N       E                     dE             d eps       ncg     rms          rms(c)
DAV:   1    -0.215312234770E+02   -0.10251E-03   -0.58277E-03    72   0.163E+00    0.115E-01
RMM:   2    -0.215311168565E+02    0.10662E-03   -0.25629E-04    52   0.403E-01    0.295E-02
RMM:   3    -0.215311063891E+02    0.10467E-04   -0.12061E-04    59   0.140E-01    0.301E-02
RMM:   4    -0.215311073517E+02   -0.96267E-06   -0.10584E-05    43   0.823E-02    0.209E-02
RMM:   5    -0.215311085559E+02   -0.12042E-05   -0.20618E-06    35   0.382E-02    0.168E-02
RMM:   6    -0.215311097851E+02   -0.12292E-05   -0.91918E-07    32   0.307E-02    0.816E-03
RMM:   7    -0.215311119497E+02   -0.21646E-05   -0.17026E-06    33   0.256E-02    0.327E-03
RMM:   8    -0.215311127263E+02   -0.77655E-06   -0.82265E-07    32   0.344E-02
 142 F= -.21545236E+02 E0= -.21545236E+02  d E =-.518449E-03  mag=     1.0000
 curvature:  -2.90 expect dE=-0.228E-02 dE for cont linesearch -0.420E-04
 ZBRENT: interpolating
 opt :   0.2186  next Energy=   -21.545260 (dE=-0.543E-03)
 bond charge predicted
       N       E                     dE             d eps       ncg     rms          rms(c)
DAV:   1    -0.215311855802E+02   -0.73630E-04   -0.33743E-03    72   0.122E+00    0.816E-02
RMM:   2    -0.215311314188E+02    0.54161E-04   -0.13540E-04    52   0.293E-01    0.219E-02
RMM:   3    -0.215311262298E+02    0.51890E-05   -0.62114E-05    58   0.104E-01    0.223E-02
RMM:   4    -0.215311267328E+02   -0.50297E-06   -0.50187E-06    41   0.628E-02    0.168E-02
RMM:   5    -0.215311270544E+02   -0.32166E-06   -0.14773E-06    36   0.353E-02
 143 F= -.21545261E+02 E0= -.21545261E+02  d E =-.543380E-03  mag=     1.0000
 curvature:  -0.09 expect dE=-0.653E-04 dE for cont linesearch -0.229E-05
 ZBRENT: interpolating
 opt :   0.2242  next Energy=   -21.545259 (dE=-0.542E-03)
 bond charge predicted
       N       E                     dE             d eps       ncg     rms          rms(c)
DAV:   1    -0.215311355728E+02   -0.88400E-05   -0.25756E-04    96   0.349E-01    0.177E-02
RMM:   2    -0.215311296086E+02    0.59641E-05   -0.12601E-05    49   0.860E-02    0.851E-03
RMM:   3    -0.215311288935E+02    0.71515E-06   -0.44918E-06    43   0.328E-02    0.625E-03
RMM:   4    -0.215311290474E+02   -0.15387E-06   -0.25397E-06    36   0.661E-02    0.636E-03
RMM:   5    -0.215311292170E+02   -0.16968E-06   -0.74759E-07    32   0.172E-02
 144 F= -.21545266E+02 E0= -.21545266E+02  d E =-.548521E-03  mag=     1.0000
 curvature:  -0.01 expect dE=-0.743E-05 dE for cont linesearch -0.156E-06
 ZBRENT: interpolating
 opt :   0.2253  next Energy=   -21.545259 (dE=-0.542E-03)
 bond charge predicted
       N       E                     dE             d eps       ncg     rms          rms(c)
DAV:   1    -0.215311299984E+02   -0.95104E-06   -0.88934E-06    72   0.649E-02    0.313E-03
RMM:   2    -0.215311299732E+02    0.25219E-07   -0.29976E-07    28   0.156E-02    0.264E-03
RMM:   3    -0.215311300353E+02   -0.62125E-07   -0.12261E-07    28   0.100E-02    0.153E-03
RMM:   4    -0.215311301441E+02   -0.10878E-06   -0.98965E-08    28   0.932E-03    0.177E-03
RMM:   5    -0.215311302575E+02   -0.11343E-06   -0.58497E-08    28   0.776E-03
 145 F= -.21545267E+02 E0= -.21545267E+02  d E =-.550150E-03  mag=     1.0000
 curvature:  -0.00 expect dE=-0.324E-05 dE for cont linesearch -0.568E-07
 ZBRENT: interpolating
 opt :   0.2256  next Energy=   -21.545259 (dE=-0.542E-03)
 bond charge predicted
       N       E                     dE             d eps       ncg     rms          rms(c)
DAV:   1    -0.215311304569E+02   -0.31285E-06   -0.47510E-07    60   0.138E-02    0.925E-04
RMM:   2    -0.215311304795E+02   -0.22525E-07   -0.16457E-08    25   0.357E-03    0.567E-04
RMM:   3    -0.215311304930E+02   -0.13548E-07   -0.64347E-09    25   0.244E-03    0.445E-04
RMM:   4    -0.215311305068E+02   -0.13839E-07   -0.27115E-09    21   0.213E-03    0.448E-04
RMM:   5    -0.215311305135E+02   -0.66150E-08   -0.27015E-10    12   0.153E-03
 146 F= -.21545268E+02 E0= -.21545268E+02  d E =-.550553E-03  mag=     1.0000
 curvature:  -0.00 expect dE=-0.108E-05 dE for cont linesearch -0.172E-07
 ZBRENT: interpolating
 opt :   0.2257  next Energy=   -21.545259 (dE=-0.542E-03)
 bond charge predicted
       N       E                     dE             d eps       ncg     rms          rms(c)
DAV:   1    -0.215311305641E+02   -0.57299E-07   -0.45135E-08    72   0.468E-03    0.514E-04
RMM:   2    -0.215311305666E+02   -0.24721E-08   -0.21684E-10     6   0.977E-04    0.338E-04
RMM:   3    -0.215311305679E+02   -0.12930E-08    0.00000E+00     6   0.937E-04    0.136E-04
RMM:   4    -0.215311305711E+02   -0.31512E-08   -0.28660E-10     8   0.112E-03    0.970E-05
RMM:   5    -0.215311305714E+02   -0.34277E-09    0.00000E+00     6   0.960E-04
 147 F= -.21545268E+02 E0= -.21545268E+02  d E =-.550651E-03  mag=     1.0000
 curvature:  -0.00 expect dE=-0.342E-06 dE for cont linesearch -0.540E-08
 ZBRENT: interpolating
 opt :   0.2257  next Energy=   -21.545259 (dE=-0.542E-03)
 bond charge predicted
       N       E                     dE             d eps       ncg     rms          rms(c)
DAV:   1    -0.215311305799E+02   -0.88565E-08   -0.31799E-09    24   0.121E-03    0.102E-04
RMM:   2    -0.215311305813E+02   -0.14135E-08    0.00000E+00     7   0.736E-04    0.621E-05
RMM:   3    -0.215311305820E+02   -0.69838E-09    0.00000E+00     4   0.740E-04    0.359E-05
RMM:   4    -0.215311305835E+02   -0.14339E-08    0.00000E+00     5   0.744E-04    0.497E-06
RMM:   5    -0.215311305836E+02   -0.96861E-10    0.00000E+00     5   0.745E-04
 148 F= -.21545268E+02 E0= -.21545268E+02  d E =-.550675E-03  mag=     1.0000
 curvature:  -0.00 expect dE=-0.984E-07 dE for cont linesearch -0.150E-08
 ZBRENT: interpolating
 opt :   0.2257  next Energy=   -21.545259 (dE=-0.542E-03)
 bond charge predicted
       N       E                     dE             d eps       ncg     rms          rms(c)
DAV:   1    -0.215311305859E+02   -0.24665E-08   -0.16247E-09    24   0.660E-04    0.168E-04
RMM:   2    -0.215311305859E+02    0.13642E-10    0.00000E+00     6   0.534E-04    0.100E-04
RMM:   3    -0.215311305859E+02    0.34106E-11    0.00000E+00     4   0.540E-04    0.555E-05
RMM:   4    -0.215311305859E+02   -0.40927E-11    0.00000E+00     4   0.544E-04    0.195E-06
RMM:   5    -0.215311305859E+02   -0.62528E-11    0.00000E+00     4   0.543E-04
 149 F= -.21545268E+02 E0= -.21545268E+02  d E =-.550680E-03  mag=     1.0000
 curvature:  -0.00 expect dE=-0.294E-07 dE for cont linesearch -0.453E-09
 ZBRENT: interpolating
 opt :   0.2257  next Energy=   -21.545259 (dE=-0.542E-03)
 bond charge predicted
       N       E                     dE             d eps       ncg     rms          rms(c)
DAV:   1    -0.215311305866E+02   -0.70827E-09   -0.37451E-10    24   0.536E-04    0.388E-05
RMM:   2    -0.215311305867E+02   -0.41041E-10    0.00000E+00     3   0.306E-04    0.233E-05
RMM:   3    -0.215311305867E+02   -0.39790E-11    0.00000E+00     3   0.309E-04    0.135E-05
RMM:   4    -0.215311305867E+02   -0.31037E-10    0.00000E+00     3   0.310E-04    0.516E-07
RMM:   5    -0.215311305867E+02   -0.40927E-11    0.00000E+00     3   0.309E-04
 150 F= -.21545268E+02 E0= -.21545268E+02  d E =-.550682E-03  mag=     1.0000
 curvature:  -0.00 expect dE=-0.843E-08 dE for cont linesearch -0.130E-09
 ZBRENT: interpolating
 opt :   0.2257  next Energy=   -21.545259 (dE=-0.542E-03)
 bond charge predicted
       N       E                     dE             d eps       ncg     rms          rms(c)
DAV:   1    -0.215311305869E+02   -0.18031E-09   -0.15641E-10    24   0.307E-04    0.981E-05
RMM:   2    -0.215311305868E+02    0.53205E-10    0.00000E+00     2   0.232E-04    0.588E-05
RMM:   3    -0.215311305868E+02    0.20236E-10    0.00000E+00     2   0.234E-04    0.336E-05
RMM:   4    -0.215311305868E+02    0.55934E-10    0.00000E+00     2   0.235E-04    0.378E-07
RMM:   5    -0.215311305868E+02   -0.19327E-11    0.00000E+00     2   0.235E-04
 151 F= -.21545268E+02 E0= -.21545268E+02  d E =-.550682E-03  mag=     1.0000
 curvature:  -0.00 expect dE=-0.244E-08 dE for cont linesearch -0.377E-10
 ZBRENT: interpolating
 opt :   0.2257  next Energy=   -21.545259 (dE=-0.542E-03)
 bond charge predicted
       N       E                     dE             d eps       ncg     rms          rms(c)
DAV:   1    -0.215311305868E+02   -0.87539E-10   -0.61178E-11    24   0.234E-04    0.171E-05
RMM:   2    -0.215311305868E+02    0.12506E-11    0.00000E+00     2   0.151E-04    0.103E-05
RMM:   3    -0.215311305868E+02    0.64801E-11    0.00000E+00     2   0.152E-04    0.616E-06
RMM:   4    -0.215311305868E+02    0.54570E-11    0.00000E+00     1   0.152E-04    0.187E-07
RMM:   5    -0.215311305868E+02   -0.21600E-11    0.00000E+00     1   0.152E-04
 152 F= -.21545268E+02 E0= -.21545268E+02  d E =-.550682E-03  mag=     1.0000
 curvature:  -0.00 expect dE=-0.702E-09 dE for cont linesearch -0.108E-10
 ZBRENT: interpolating
 opt :   0.2257  next Energy=   -21.545259 (dE=-0.542E-03)
 bond charge predicted
       N       E                     dE             d eps       ncg     rms          rms(c)
DAV:   1    -0.215311305868E+02   -0.67075E-11    0.14380E-11    24   0.152E-04    0.443E-05
RMM:   2    -0.215311305868E+02   -0.17053E-11    0.00000E+00     2   0.113E-04    0.266E-05
RMM:   3    -0.215311305868E+02    0.35243E-11    0.00000E+00     1   0.114E-04    0.156E-05
RMM:   4    -0.215311305868E+02    0.23874E-11    0.00000E+00     1   0.115E-04    0.173E-07
RMM:   5    -0.215311305868E+02    0.19327E-11    0.00000E+00     1   0.115E-04
 153 F= -.21545268E+02 E0= -.21545268E+02  d E =-.550682E-03  mag=     1.0000
 curvature:  -0.00 expect dE=-0.203E-09 dE for cont linesearch -0.313E-11
 ZBRENT: interpolating
 opt :   0.2257  next Energy=   -21.545259 (dE=-0.542E-03)
 bond charge predicted
       N       E                     dE             d eps       ncg     rms          rms(c)
DAV:   1    -0.215311305868E+02    0.26716E-10   -0.65636E-12    24   0.114E-04    0.783E-06
RMM:   2    -0.215311305868E+02    0.11482E-10    0.00000E+00     1   0.750E-05    0.473E-06
RMM:   3    -0.215311305868E+02    0.12506E-10    0.00000E+00     1   0.755E-05    0.272E-06
RMM:   4    -0.215311305868E+02    0.15234E-10    0.00000E+00     1   0.754E-05    0.116E-07
RMM:   5    -0.215311305868E+02    0.11369E-11    0.00000E+00     1   0.754E-05
 154 F= -.21545268E+02 E0= -.21545268E+02  d E =-.550682E-03  mag=     1.0000
 curvature:  -0.00 expect dE=-0.584E-10 dE for cont linesearch -0.902E-12
 ZBRENT:  accuracy reached
 opt :   0.0000  next Energy=     0.000000 (dE= 0.215E+02)
 bond charge predicted
       N       E                     dE             d eps       ncg     rms          rms(c)
DAV:   1    -0.215380744154E+02   -0.69438E-02   -0.41544E-01    72   0.135E+01    0.926E-01
RMM:   2    -0.215313184800E+02    0.67559E-02   -0.16848E-02    52   0.325E+00    0.232E-01
RMM:   3    -0.215306547410E+02    0.66374E-03   -0.75538E-03    59   0.116E+00    0.269E-01
RMM:   4    -0.215306746130E+02   -0.19872E-04   -0.72607E-04    58   0.624E-01    0.233E-01
RMM:   5    -0.215306846590E+02   -0.10046E-04   -0.75713E-05    59   0.135E-01    0.176E-01
RMM:   6    -0.215306662070E+02    0.18452E-04   -0.66239E-05    58   0.118E-01    0.438E-02
RMM:   7    -0.215306594530E+02    0.67540E-05   -0.60897E-05    58   0.918E-02    0.507E-02
RMM:   8    -0.215306626922E+02   -0.32392E-05   -0.14839E-05    50   0.901E-02    0.230E-02
RMM:   9    -0.215306679128E+02   -0.52206E-05   -0.49221E-06    41   0.329E-02    0.111E-02
RMM:  10    -0.215306757017E+02   -0.77889E-05   -0.24289E-06    38   0.464E-02    0.112E-02
RMM:  11    -0.215306822915E+02   -0.65898E-05   -0.10681E-06    32   0.279E-02    0.142E-02
RMM:  12    -0.215306905656E+02   -0.82740E-05   -0.92846E-07    33   0.189E-02    0.147E-02
RMM:  13    -0.215306916601E+02   -0.10945E-05   -0.40798E-07    32   0.195E-02    0.486E-03
RMM:  14    -0.215306945272E+02   -0.28671E-05   -0.10990E-06    34   0.140E-02    0.451E-03
RMM:  15    -0.215306959708E+02   -0.14436E-05   -0.33303E-07    32   0.191E-02    0.239E-03
RMM:  16    -0.215306963555E+02   -0.38469E-06   -0.17949E-07    31   0.745E-03
 155 F= -.21544716E+02 E0= -.21544716E+02  d E =0.104454E-05  mag=     1.0000
 curvature:   0.00 expect dE= 0.352-320 dE for cont linesearch  0.193-321
 ZBRENT: fatal error in bracketing
     please rerun with smaller EDIFF, or copy CONTCAR
     to POSCAR and continue
