       N       E                     dE             d eps       ncg     rms          rms(c)
DAV:   1     0.139686538120E+03    0.13969E+03   -0.48330E+03    48   0.777E+02
DAV:   2     0.143515818062E+02   -0.12533E+03   -0.12524E+03    60   0.184E+02
DAV:   3    -0.219412723969E+02   -0.36293E+02   -0.36285E+02    96   0.143E+02
DAV:   4    -0.223789659547E+02   -0.43769E+00   -0.43027E+00    72   0.171E+01
DAV:   5    -0.223868449940E+02   -0.78790E-02   -0.78632E-02    84   0.225E+00    0.196E+01
RMM:   6    -0.213276538009E+02    0.10592E+01   -0.15399E+00    50   0.103E+01    0.124E+01
RMM:   7    -0.210973097493E+02    0.23034E+00   -0.10972E+00    48   0.921E+00    0.498E+00
RMM:   8    -0.210030278511E+02    0.94282E-01   -0.34581E-01    50   0.689E+00    0.118E+00
RMM:   9    -0.210863615930E+02   -0.83334E-01   -0.59831E-02    48   0.251E+00    0.307E+00
RMM:  10    -0.210120834476E+02    0.74278E-01   -0.71860E-03    48   0.114E+00    0.325E+00
RMM:  11    -0.211647572743E+02   -0.15267E+00   -0.37731E-02    48   0.139E+00    0.252E+00
RMM:  12    -0.213725127745E+02   -0.20776E+00   -0.26557E-01    48   0.402E+00    0.263E-01
RMM:  13    -0.214122227932E+02   -0.39710E-01   -0.13127E-02    48   0.120E+00    0.403E-01
RMM:  14    -0.214176718030E+02   -0.54490E-02   -0.34056E-03    48   0.450E-01    0.263E-01
RMM:  15    -0.214208653948E+02   -0.31936E-02   -0.82600E-03    48   0.703E-01    0.145E-01
RMM:  16    -0.214222222981E+02   -0.13569E-02   -0.47631E-04    48   0.288E-01    0.695E-02
RMM:  17    -0.214230353823E+02   -0.81308E-03   -0.68640E-04    48   0.202E-01    0.392E-02
RMM:  18    -0.214234777504E+02   -0.44237E-03   -0.88296E-05    47   0.669E-02    0.255E-02
RMM:  19    -0.214236900359E+02   -0.21229E-03   -0.19392E-04    48   0.100E-01    0.306E-02
RMM:  20    -0.214237776272E+02   -0.87591E-04   -0.22773E-05    45   0.385E-02    0.180E-02
RMM:  21    -0.214238270568E+02   -0.49430E-04   -0.22264E-05    47   0.353E-02    0.216E-03
RMM:  22    -0.214238422449E+02   -0.15188E-04   -0.55405E-06    40   0.168E-02    0.469E-03
RMM:  23    -0.214238498607E+02   -0.76158E-05   -0.11398E-06    34   0.881E-03    0.414E-03
RMM:  24    -0.214238537957E+02   -0.39349E-05   -0.73790E-07    33   0.862E-03    0.810E-04
RMM:  25    -0.214238561758E+02   -0.23801E-05   -0.39776E-07    31   0.531E-03    0.457E-04
RMM:  26    -0.214238570142E+02   -0.83843E-06   -0.16524E-07    30   0.457E-03
   1 F= -.21437994E+02 E0= -.21437994E+02  d E =-.214380E+02  mag=     1.0000
       N       E                     dE             d eps       ncg     rms          rms(c)
DAV:   1    -0.214285474180E+02   -0.46912E-02   -0.29064E-01    96   0.661E+00    0.432E-01
RMM:   2    -0.214247670872E+02    0.37803E-02   -0.79565E-03    48   0.104E+00    0.189E-01
RMM:   3    -0.214240860219E+02    0.68107E-03   -0.29926E-03    49   0.532E-01    0.755E-02
RMM:   4    -0.214242691912E+02   -0.18317E-03   -0.68205E-04    50   0.296E-01    0.373E-02
RMM:   5    -0.214243320271E+02   -0.62836E-04   -0.50329E-05    48   0.733E-02    0.219E-02
RMM:   6    -0.214243778953E+02   -0.45868E-04   -0.39879E-05    50   0.547E-02    0.984E-03
RMM:   7    -0.214243941872E+02   -0.16292E-04   -0.27624E-06    37   0.174E-02    0.566E-03
RMM:   8    -0.214244120246E+02   -0.17837E-04   -0.43227E-06    39   0.171E-02    0.351E-03
RMM:   9    -0.214244312488E+02   -0.19224E-04   -0.21741E-06    37   0.125E-02    0.234E-03
RMM:  10    -0.214244388678E+02   -0.76190E-05   -0.68321E-07    33   0.728E-03    0.107E-03
RMM:  11    -0.214244463766E+02   -0.75088E-05   -0.10797E-06    34   0.706E-03    0.118E-03
RMM:  12    -0.214244523816E+02   -0.60050E-05   -0.95508E-07    34   0.705E-03    0.716E-04
RMM:  13    -0.214244531466E+02   -0.76499E-06   -0.25611E-07    28   0.562E-03
   2 F= -.21438683E+02 E0= -.21438683E+02  d E =-.689123E-03  mag=     1.0000
       N       E                     dE             d eps       ncg     rms          rms(c)
DAV:   1    -0.214252038763E+02   -0.75149E-03   -0.34908E-02    48   0.231E+00    0.145E-01
RMM:   2    -0.214248404420E+02    0.36343E-03   -0.10268E-03    48   0.398E-01    0.659E-02
RMM:   3    -0.214247508436E+02    0.89598E-04   -0.27512E-04    48   0.166E-01    0.273E-02
RMM:   4    -0.214247491138E+02    0.17298E-05   -0.87062E-05    49   0.106E-01    0.121E-02
RMM:   5    -0.214247515215E+02   -0.24077E-05   -0.74705E-06    44   0.303E-02    0.769E-03
RMM:   6    -0.214247534161E+02   -0.18946E-05   -0.34190E-06    37   0.201E-02    0.325E-03
RMM:   7    -0.214247546784E+02   -0.12623E-05   -0.65988E-07    32   0.117E-02    0.170E-03
RMM:   8    -0.214247556143E+02   -0.93589E-06   -0.23123E-07    30   0.721E-03
   3 F= -.21438953E+02 E0= -.21438953E+02  d E =-.958753E-03  mag=     1.0000
       N       E                     dE             d eps       ncg     rms          rms(c)
DAV:   1    -0.214261484495E+02   -0.13938E-02   -0.32992E-02    60   0.254E+00    0.174E-01
RMM:   2    -0.214255397562E+02    0.60869E-03   -0.17343E-03    48   0.507E-01    0.593E-02
RMM:   3    -0.214254631413E+02    0.76615E-04   -0.27431E-04    49   0.159E-01    0.314E-02
RMM:   4    -0.214254527628E+02    0.10379E-04   -0.90576E-05    50   0.102E-01    0.154E-02
RMM:   5    -0.214254567707E+02   -0.40080E-05   -0.11995E-05    48   0.317E-02    0.784E-03
RMM:   6    -0.214254628259E+02   -0.60552E-05   -0.13447E-06    33   0.173E-02    0.436E-03
RMM:   7    -0.214254671506E+02   -0.43247E-05   -0.85509E-07    33   0.109E-02    0.153E-03
RMM:   8    -0.214254690199E+02   -0.18693E-05   -0.26323E-07    32   0.727E-03    0.995E-04
RMM:   9    -0.214254711459E+02   -0.21259E-05   -0.21030E-07    32   0.505E-03    0.633E-04
RMM:  10    -0.214254730575E+02   -0.19116E-05   -0.18094E-07    32   0.432E-03    0.351E-04
RMM:  11    -0.214254738174E+02   -0.75991E-06   -0.88377E-08    27   0.354E-03
   4 F= -.21439710E+02 E0= -.21439710E+02  d E =-.757454E-03  mag=     1.0000
       N       E                     dE             d eps       ncg     rms          rms(c)
DAV:   1    -0.214307442146E+02   -0.52712E-02   -0.20428E-01    84   0.631E+00    0.440E-01
RMM:   2    -0.214268015504E+02    0.39427E-02   -0.11557E-02    49   0.126E+00    0.146E-01
RMM:   3    -0.214263588847E+02    0.44267E-03   -0.17781E-03    48   0.399E-01    0.781E-02
RMM:   4    -0.214263235953E+02    0.35289E-04   -0.56980E-04    51   0.272E-01    0.374E-02
RMM:   5    -0.214263618173E+02   -0.38222E-04   -0.68120E-05    48   0.741E-02    0.183E-02
RMM:   6    -0.214263974634E+02   -0.35646E-04   -0.12164E-05    49   0.432E-02    0.952E-03
RMM:   7    -0.214264194680E+02   -0.22005E-04   -0.39000E-06    40   0.197E-02    0.412E-03
RMM:   8    -0.214264308965E+02   -0.11429E-04   -0.11404E-06    33   0.118E-02    0.247E-03
RMM:   9    -0.214264480380E+02   -0.17141E-04   -0.22379E-06    38   0.102E-02    0.165E-03
RMM:  10    -0.214264553050E+02   -0.72670E-05   -0.56549E-07    33   0.813E-03    0.870E-04
RMM:  11    -0.214264597090E+02   -0.44040E-05   -0.52902E-07    33   0.540E-03    0.485E-04
RMM:  12    -0.214264628064E+02   -0.30974E-05   -0.46154E-07    32   0.512E-03    0.414E-04
RMM:  13    -0.214264634212E+02   -0.61479E-06   -0.19913E-07    28   0.465E-03
   5 F= -.21440799E+02 E0= -.21440799E+02  d E =-.184595E-02  mag=     1.0000
       N       E                     dE             d eps       ncg     rms          rms(c)
DAV:   1    -0.214274929164E+02   -0.10301E-02   -0.45370E-02    84   0.298E+00    0.207E-01
RMM:   2    -0.214266203325E+02    0.87258E-03   -0.25526E-03    49   0.592E-01    0.689E-02
RMM:   3    -0.214265166179E+02    0.10371E-03   -0.39550E-04    48   0.188E-01    0.367E-02
RMM:   4    -0.214265053393E+02    0.11279E-04   -0.12770E-04    51   0.129E-01    0.176E-02
RMM:   5    -0.214265137811E+02   -0.84418E-05   -0.15056E-05    48   0.348E-02    0.859E-03
RMM:   6    -0.214265228878E+02   -0.91067E-05   -0.24040E-06    37   0.204E-02    0.447E-03
RMM:   7    -0.214265288290E+02   -0.59412E-05   -0.94807E-07    33   0.128E-02    0.175E-03
RMM:   8    -0.214265320873E+02   -0.32583E-05   -0.38802E-07    32   0.807E-03    0.118E-03
RMM:   9    -0.214265365426E+02   -0.44553E-05   -0.47525E-07    32   0.636E-03    0.873E-04
RMM:  10    -0.214265387443E+02   -0.22017E-05   -0.24393E-07    32   0.569E-03    0.452E-04
RMM:  11    -0.214265398000E+02   -0.10557E-05   -0.15145E-07    30   0.388E-03    0.281E-04
RMM:  12    -0.214265402890E+02   -0.48897E-06   -0.87287E-08    25   0.316E-03
   6 F= -.21440923E+02 E0= -.21440923E+02  d E =-.197020E-02  mag=     1.0000
       N       E                     dE             d eps       ncg     rms          rms(c)
DAV:   1    -0.214279519732E+02   -0.14122E-02   -0.26656E-02    72   0.238E+00    0.182E-01
RMM:   2    -0.214272412112E+02    0.71076E-03   -0.19037E-03    50   0.521E-01    0.589E-02
RMM:   3    -0.214271618393E+02    0.79372E-04   -0.34772E-04    49   0.169E-01    0.272E-02
RMM:   4    -0.214271499431E+02    0.11896E-04   -0.85503E-05    50   0.113E-01    0.135E-02
RMM:   5    -0.214271561427E+02   -0.61996E-05   -0.11604E-05    48   0.300E-02    0.738E-03
RMM:   6    -0.214271634529E+02   -0.73103E-05   -0.17300E-06    34   0.173E-02    0.442E-03
RMM:   7    -0.214271688563E+02   -0.54033E-05   -0.12420E-06    34   0.128E-02    0.166E-03
RMM:   8    -0.214271714064E+02   -0.25501E-05   -0.37149E-07    32   0.882E-03    0.110E-03
RMM:   9    -0.214271744775E+02   -0.30712E-05   -0.37468E-07    32   0.600E-03    0.789E-04
RMM:  10    -0.214271768334E+02   -0.23559E-05   -0.27503E-07    32   0.584E-03    0.423E-04
RMM:  11    -0.214271774488E+02   -0.61535E-06   -0.12015E-07    29   0.411E-03
   7 F= -.21441599E+02 E0= -.21441599E+02  d E =-.675517E-03  mag=     1.0000
       N       E                     dE             d eps       ncg     rms          rms(c)
DAV:   1    -0.214358572317E+02   -0.86804E-02   -0.24127E-01    72   0.718E+00    0.550E-01
RMM:   2    -0.214293920882E+02    0.64651E-02   -0.17544E-02    50   0.157E+00    0.178E-01
RMM:   3    -0.214287357155E+02    0.65637E-03   -0.31443E-03    49   0.509E-01    0.825E-02
RMM:   4    -0.214286472412E+02    0.88474E-04   -0.76642E-04    50   0.338E-01    0.408E-02
RMM:   5    -0.214287081799E+02   -0.60939E-04   -0.10629E-04    48   0.913E-02    0.219E-02
RMM:   6    -0.214287562373E+02   -0.48057E-04   -0.18970E-05    48   0.530E-02    0.132E-02
RMM:   7    -0.214287922168E+02   -0.35979E-04   -0.10444E-05    45   0.265E-02    0.589E-03
RMM:   8    -0.214288076135E+02   -0.15397E-04   -0.21763E-06    37   0.155E-02    0.347E-03
RMM:   9    -0.214288299644E+02   -0.22351E-04   -0.35759E-06    38   0.138E-02    0.226E-03
RMM:  10    -0.214288409514E+02   -0.10987E-04   -0.88991E-07    33   0.106E-02    0.113E-03
RMM:  11    -0.214288468174E+02   -0.58660E-05   -0.80888E-07    33   0.643E-03    0.811E-04
RMM:  12    -0.214288520333E+02   -0.52159E-05   -0.75197E-07    33   0.673E-03    0.728E-04
RMM:  13    -0.214288533276E+02   -0.12942E-05   -0.35410E-07    28   0.597E-03    0.358E-04
RMM:  14    -0.214288535049E+02   -0.17732E-06   -0.15120E-07    29   0.434E-03
   8 F= -.21443392E+02 E0= -.21443392E+02  d E =-.246835E-02  mag=     1.0000
       N       E                     dE             d eps       ncg     rms          rms(c)
DAV:   1    -0.214595261105E+02   -0.30673E-01   -0.97708E-01    72   0.145E+01    0.111E+00
RMM:   2    -0.214334600826E+02    0.26066E-01   -0.72216E-02    50   0.318E+00    0.358E-01
RMM:   3    -0.214308546995E+02    0.26054E-02   -0.12736E-02    49   0.103E+00    0.167E-01
RMM:   4    -0.214304880247E+02    0.36667E-03   -0.30651E-03    50   0.677E-01    0.822E-02
RMM:   5    -0.214307049955E+02   -0.21697E-03   -0.43034E-04    48   0.185E-01    0.439E-02
RMM:   6    -0.214308610819E+02   -0.15609E-03   -0.79606E-05    48   0.109E-01    0.266E-02
RMM:   7    -0.214309819372E+02   -0.12086E-03   -0.44614E-05    50   0.537E-02    0.123E-02
RMM:   8    -0.214310293258E+02   -0.47389E-04   -0.89953E-06    44   0.284E-02    0.736E-03
RMM:   9    -0.214310970974E+02   -0.67772E-04   -0.13518E-05    46   0.247E-02    0.468E-03
RMM:  10    -0.214311262016E+02   -0.29104E-04   -0.31781E-06    38   0.146E-02    0.225E-03
RMM:  11    -0.214311440538E+02   -0.17852E-04   -0.30996E-06    38   0.119E-02    0.149E-03
RMM:  12    -0.214311606902E+02   -0.16636E-04   -0.30490E-06    37   0.110E-02    0.101E-03
RMM:  13    -0.214311632869E+02   -0.25968E-05   -0.57599E-07    32   0.691E-03    0.486E-04
RMM:  14    -0.214311638031E+02   -0.51614E-06   -0.20288E-07    29   0.557E-03
   9 F= -.21445943E+02 E0= -.21445943E+02  d E =-.502027E-02  mag=     1.0000
       N       E                     dE             d eps       ncg     rms          rms(c)
DAV:   1    -0.215459385790E+02   -0.11478E+00   -0.39853E+00    60   0.294E+01    0.222E+00
RMM:   2    -0.214416877056E+02    0.10425E+00   -0.28901E-01    49   0.638E+00    0.736E-01
RMM:   3    -0.214311435018E+02    0.10544E-01   -0.50797E-02    49   0.210E+00    0.338E-01
RMM:   4    -0.214298230865E+02    0.13204E-02   -0.12537E-02    50   0.130E+00    0.167E-01
RMM:   5    -0.214304785089E+02   -0.65542E-03   -0.16628E-03    48   0.381E-01    0.889E-02
RMM:   6    -0.214309110589E+02   -0.43255E-03   -0.32210E-04    48   0.236E-01    0.545E-02
RMM:   7    -0.214312863993E+02   -0.37534E-03   -0.18935E-04    50   0.107E-01    0.251E-02
RMM:   8    -0.214314327747E+02   -0.14638E-03   -0.36469E-05    48   0.581E-02    0.150E-02
RMM:   9    -0.214316303101E+02   -0.19754E-03   -0.51387E-05    48   0.490E-02    0.103E-02
RMM:  10    -0.214317154850E+02   -0.85175E-04   -0.11262E-05    44   0.244E-02    0.521E-03
RMM:  11    -0.214317578770E+02   -0.42392E-04   -0.99744E-06    46   0.197E-02    0.300E-03
RMM:  12    -0.214318048377E+02   -0.46961E-04   -0.84588E-06    40   0.170E-02    0.202E-03
RMM:  13    -0.214318174679E+02   -0.12630E-04   -0.31671E-06    37   0.112E-02    0.883E-04
RMM:  14    -0.214318201796E+02   -0.27117E-05   -0.55407E-07    32   0.748E-03    0.542E-04
RMM:  15    -0.214318213148E+02   -0.11352E-05   -0.28279E-07    29   0.536E-03    0.423E-04
RMM:  16    -0.214318218984E+02   -0.58361E-06   -0.16130E-07    29   0.430E-03
  10 F= -.21447119E+02 E0= -.21447119E+02  d E =-.619582E-02  mag=     1.0000
       N       E                     dE             d eps       ncg     rms          rms(c)
DAV:   1    -0.214402090317E+02   -0.83877E-02   -0.23773E-01    72   0.739E+00    0.571E-01
RMM:   2    -0.214335955512E+02    0.66135E-02   -0.19590E-02    50   0.163E+00    0.173E-01
RMM:   3    -0.214329346823E+02    0.66087E-03   -0.30797E-03    50   0.511E-01    0.820E-02
RMM:   4    -0.214328541199E+02    0.80562E-04   -0.70354E-04    49   0.320E-01    0.384E-02
RMM:   5    -0.214329091280E+02   -0.55008E-04   -0.12410E-04    49   0.107E-01    0.200E-02
RMM:   6    -0.214329526737E+02   -0.43546E-04   -0.16977E-05    48   0.569E-02    0.124E-02
RMM:   7    -0.214329874479E+02   -0.34774E-04   -0.88373E-06    45   0.259E-02    0.574E-03
RMM:   8    -0.214330026585E+02   -0.15211E-04   -0.20612E-06    36   0.147E-02    0.310E-03
RMM:   9    -0.214330210270E+02   -0.18369E-04   -0.29108E-06    38   0.130E-02    0.219E-03
RMM:  10    -0.214330313656E+02   -0.10339E-04   -0.88203E-07    33   0.104E-02    0.103E-03
RMM:  11    -0.214330361498E+02   -0.47842E-05   -0.62046E-07    33   0.650E-03    0.760E-04
RMM:  12    -0.214330388064E+02   -0.26566E-05   -0.37088E-07    32   0.564E-03    0.535E-04
RMM:  13    -0.214330401441E+02   -0.13377E-05   -0.31419E-07    30   0.487E-03    0.406E-04
RMM:  14    -0.214330402523E+02   -0.10817E-06   -0.10994E-07    27   0.414E-03
  11 F= -.21448456E+02 E0= -.21448456E+02  d E =-.133696E-02  mag=     1.0000
       N       E                     dE             d eps       ncg     rms          rms(c)
DAV:   1    -0.215015911451E+02   -0.68551E-01   -0.21785E+00    72   0.225E+01    0.173E+00
RMM:   2    -0.214411803686E+02    0.60411E-01   -0.18270E-01    50   0.495E+00    0.522E-01
RMM:   3    -0.214354832320E+02    0.56971E-02   -0.28570E-02    49   0.157E+00    0.248E-01
RMM:   4    -0.214347890950E+02    0.69414E-03   -0.67902E-03    50   0.100E+00    0.117E-01
RMM:   5    -0.214352049205E+02   -0.41583E-03   -0.10032E-03    49   0.298E-01    0.618E-02
RMM:   6    -0.214354905622E+02   -0.28564E-03   -0.16854E-04    48   0.174E-01    0.377E-02
RMM:   7    -0.214357061471E+02   -0.21558E-03   -0.88940E-05    50   0.765E-02    0.181E-02
RMM:   8    -0.214357873670E+02   -0.81220E-04   -0.17512E-05    48   0.408E-02    0.104E-02
RMM:   9    -0.214358947586E+02   -0.10739E-03   -0.26861E-05    48   0.363E-02    0.728E-03
RMM:  10    -0.214359415260E+02   -0.46767E-04   -0.56755E-06    39   0.183E-02    0.344E-03
RMM:  11    -0.214359657609E+02   -0.24235E-04   -0.46329E-06    40   0.151E-02    0.189E-03
RMM:  12    -0.214359907601E+02   -0.24999E-04   -0.43719E-06    38   0.139E-02    0.149E-03
RMM:  13    -0.214359969230E+02   -0.61629E-05   -0.13445E-06    35   0.867E-03    0.667E-04
RMM:  14    -0.214359976412E+02   -0.71818E-06   -0.30335E-07    31   0.577E-03
  12 F= -.21451788E+02 E0= -.21451788E+02  d E =-.466888E-02  mag=     1.0000
       N       E                     dE             d eps       ncg     rms          rms(c)
DAV:   1    -0.217109235144E+02   -0.27493E+00   -0.90530E+00    72   0.461E+01    0.356E+00
RMM:   2    -0.214606981089E+02    0.25023E+00   -0.77492E-01    50   0.102E+01    0.105E+00
RMM:   3    -0.214383108046E+02    0.22387E-01   -0.12450E-01    50   0.328E+00    0.493E-01
RMM:   4    -0.214356091371E+02    0.27017E-02   -0.21628E-02    48   0.191E+00    0.229E-01
RMM:   5    -0.214369849886E+02   -0.13759E-02   -0.52876E-03    49   0.697E-01    0.121E-01
RMM:   6    -0.214375596748E+02   -0.57469E-03   -0.62315E-04    48   0.338E-01    0.777E-02
RMM:   7    -0.214382477989E+02   -0.68812E-03   -0.40834E-04    50   0.170E-01    0.391E-02
RMM:   8    -0.214384685921E+02   -0.22079E-03   -0.73515E-05    48   0.862E-02    0.206E-02
RMM:   9    -0.214387404795E+02   -0.27189E-03   -0.92149E-05    48   0.737E-02    0.155E-02
RMM:  10    -0.214388851262E+02   -0.14465E-03   -0.25323E-05    48   0.374E-02    0.656E-03
RMM:  11    -0.214389337270E+02   -0.48601E-04   -0.11832E-05    47   0.243E-02    0.329E-03
RMM:  12    -0.214389999217E+02   -0.66195E-04   -0.14313E-05    42   0.211E-02    0.269E-03
RMM:  13    -0.214390115213E+02   -0.11600E-04   -0.31184E-06    37   0.111E-02    0.117E-03
RMM:  14    -0.214390131918E+02   -0.16705E-05   -0.59715E-07    32   0.772E-03    0.758E-04
RMM:  15    -0.214390139712E+02   -0.77935E-06   -0.26819E-07    30   0.604E-03
  13 F= -.21455646E+02 E0= -.21455646E+02  d E =-.852673E-02  mag=     1.0000
       N       E                     dE             d eps       ncg     rms          rms(c)
DAV:   1    -0.214771093992E+02   -0.38096E-01   -0.14339E+00    60   0.178E+01    0.123E+00
RMM:   2    -0.214459852447E+02    0.31124E-01   -0.83310E-02    49   0.360E+00    0.420E-01
RMM:   3    -0.214423979919E+02    0.35873E-02   -0.18476E-02    51   0.127E+00    0.175E-01
RMM:   4    -0.214422546129E+02    0.14338E-03   -0.30043E-03    48   0.689E-01    0.862E-02
RMM:   5    -0.214425653251E+02   -0.31071E-03   -0.54250E-04    48   0.235E-01    0.478E-02
RMM:   6    -0.214427119785E+02   -0.14665E-03   -0.83245E-05    48   0.126E-01    0.281E-02
RMM:   7    -0.214428305672E+02   -0.11859E-03   -0.49475E-05    51   0.596E-02    0.127E-02
RMM:   8    -0.214428818799E+02   -0.51313E-04   -0.98864E-06    45   0.281E-02    0.807E-03
RMM:   9    -0.214429500826E+02   -0.68203E-04   -0.12321E-05    44   0.232E-02    0.375E-03
RMM:  10    -0.214429765896E+02   -0.26507E-04   -0.30319E-06    37   0.142E-02    0.200E-03
RMM:  11    -0.214429930578E+02   -0.16468E-04   -0.25727E-06    37   0.102E-02    0.138E-03
RMM:  12    -0.214430046392E+02   -0.11581E-04   -0.24938E-06    37   0.956E-03    0.973E-04
RMM:  13    -0.214430052483E+02   -0.60908E-06   -0.29688E-07    31   0.621E-03
  14 F= -.21459951E+02 E0= -.21459951E+02  d E =-.430533E-02  mag=     1.0000
       N       E                     dE             d eps       ncg     rms          rms(c)
DAV:   1    -0.214871514817E+02   -0.44147E-01   -0.18040E+00    60   0.200E+01    0.139E+00
RMM:   2    -0.214479228216E+02    0.39229E-01   -0.10558E-01    49   0.408E+00    0.471E-01
RMM:   3    -0.214434422035E+02    0.44806E-02   -0.23301E-02    51   0.143E+00    0.196E-01
RMM:   4    -0.214432341439E+02    0.20806E-03   -0.38403E-03    49   0.785E-01    0.973E-02
RMM:   5    -0.214436064859E+02   -0.37234E-03   -0.65803E-04    48   0.250E-01    0.534E-02
RMM:   6    -0.214437872381E+02   -0.18075E-03   -0.12333E-04    49   0.147E-01    0.310E-02
RMM:   7    -0.214439205247E+02   -0.13329E-03   -0.50867E-05    51   0.609E-02    0.142E-02
RMM:   8    -0.214439861305E+02   -0.65606E-04   -0.12217E-05    46   0.312E-02    0.902E-03
RMM:   9    -0.214440679488E+02   -0.81818E-04   -0.14744E-05    44   0.249E-02    0.411E-03
RMM:  10    -0.214440974928E+02   -0.29544E-04   -0.34953E-06    37   0.160E-02    0.220E-03
RMM:  11    -0.214441184098E+02   -0.20917E-04   -0.35758E-06    37   0.117E-02    0.158E-03
RMM:  12    -0.214441305908E+02   -0.12181E-04   -0.28082E-06    37   0.109E-02    0.110E-03
RMM:  13    -0.214441312144E+02   -0.62356E-06   -0.34464E-07    32   0.686E-03
  15 F= -.21461449E+02 E0= -.21461449E+02  d E =-.580296E-02  mag=     1.0000
       N       E                     dE             d eps       ncg     rms          rms(c)
DAV:   1    -0.214689230918E+02   -0.24793E-01   -0.89812E-01    48   0.144E+01    0.992E-01
RMM:   2    -0.214489574219E+02    0.19966E-01   -0.56907E-02    48   0.299E+00    0.318E-01
RMM:   3    -0.214464490037E+02    0.25084E-02   -0.10431E-02    50   0.991E-01    0.142E-01
RMM:   4    -0.214462030494E+02    0.24595E-03   -0.24357E-03    51   0.566E-01    0.684E-02
RMM:   5    -0.214463421692E+02   -0.13912E-03   -0.29979E-04    48   0.164E-01    0.373E-02
RMM:   6    -0.214464589692E+02   -0.11680E-03   -0.62729E-05    49   0.114E-01    0.207E-02
RMM:   7    -0.214465359148E+02   -0.76946E-04   -0.25236E-05    50   0.448E-02    0.975E-03
RMM:   8    -0.214465694594E+02   -0.33545E-04   -0.57031E-06    41   0.245E-02    0.599E-03
RMM:   9    -0.214466214027E+02   -0.51943E-04   -0.10235E-05    43   0.213E-02    0.321E-03
RMM:  10    -0.214466393099E+02   -0.17907E-04   -0.21669E-06    37   0.140E-02    0.162E-03
RMM:  11    -0.214466472668E+02   -0.79569E-05   -0.14991E-06    36   0.927E-03    0.108E-03
RMM:  12    -0.214466522255E+02   -0.49587E-05   -0.86854E-07    33   0.863E-03    0.765E-04
RMM:  13    -0.214466525522E+02   -0.32661E-06   -0.24013E-07    30   0.599E-03
  16 F= -.21464264E+02 E0= -.21464264E+02  d E =-.281554E-02  mag=     1.0000
       N       E                     dE             d eps       ncg     rms          rms(c)
DAV:   1    -0.216579838523E+02   -0.21133E+00   -0.83021E+00    48   0.444E+01    0.303E+00
RMM:   2    -0.214733511750E+02    0.18463E+00   -0.54128E-01    48   0.934E+00    0.972E-01
RMM:   3    -0.214510390048E+02    0.22312E-01   -0.99012E-02    50   0.309E+00    0.426E-01
RMM:   4    -0.214490180414E+02    0.20210E-02   -0.22179E-02    51   0.174E+00    0.204E-01
RMM:   5    -0.214500891190E+02   -0.10711E-02   -0.27711E-03    48   0.511E-01    0.112E-01
RMM:   6    -0.214507575706E+02   -0.66845E-03   -0.60127E-04    50   0.358E-01    0.625E-02
RMM:   7    -0.214512475853E+02   -0.49001E-03   -0.21421E-04    50   0.133E-01    0.287E-02
RMM:   8    -0.214514384719E+02   -0.19089E-03   -0.52545E-05    48   0.761E-02    0.179E-02
RMM:   9    -0.214516936275E+02   -0.25516E-03   -0.69853E-05    48   0.576E-02    0.958E-03
RMM:  10    -0.214517850602E+02   -0.91433E-04   -0.14622E-05    45   0.318E-02    0.492E-03
RMM:  11    -0.214518362466E+02   -0.51186E-04   -0.12326E-05    43   0.229E-02    0.305E-03
RMM:  12    -0.214518790309E+02   -0.42784E-04   -0.99707E-06    41   0.201E-02    0.215E-03
RMM:  13    -0.214518821276E+02   -0.30967E-05   -0.15009E-06    36   0.116E-02    0.949E-04
RMM:  14    -0.214518826147E+02   -0.48710E-06   -0.33114E-07    32   0.670E-03
  17 F= -.21470463E+02 E0= -.21470463E+02  d E =-.901415E-02  mag=     1.0000
       N       E                     dE             d eps       ncg     rms          rms(c)
DAV:   1    -0.223851566159E+02   -0.93327E+00   -0.35751E+01    72   0.951E+01    0.667E+00
RMM:   2    -0.215286294763E+02    0.85653E+00   -0.26203E+00    50   0.215E+01    0.204E+00
RMM:   3    -0.214500853762E+02    0.78544E-01   -0.54451E-01    51   0.675E+00    0.917E-01
RMM:   4    -0.214454356805E+02    0.46497E-02   -0.81825E-02    52   0.474E+00    0.457E-01
RMM:   5    -0.214486514038E+02   -0.32157E-02   -0.13018E-02    48   0.114E+00    0.243E-01
RMM:   6    -0.214498554337E+02   -0.12040E-02   -0.20856E-03    52   0.699E-01    0.144E-01
RMM:   7    -0.214512108234E+02   -0.13554E-02   -0.98149E-04    48   0.280E-01    0.722E-02
RMM:   8    -0.214518719622E+02   -0.66114E-03   -0.26689E-04    49   0.172E-01    0.365E-02
RMM:   9    -0.214523941896E+02   -0.52223E-03   -0.15265E-04    48   0.102E-01    0.239E-02
RMM:  10    -0.214526674115E+02   -0.27322E-03   -0.66427E-05    48   0.707E-02    0.956E-03
RMM:  11    -0.214527651553E+02   -0.97744E-04   -0.20344E-05    49   0.415E-02    0.590E-03
RMM:  12    -0.214528793234E+02   -0.11417E-03   -0.34139E-05    44   0.358E-02    0.478E-03
RMM:  13    -0.214528893287E+02   -0.10005E-04   -0.51659E-06    39   0.227E-02    0.257E-03
RMM:  14    -0.214528904285E+02   -0.10998E-05   -0.13247E-06    34   0.138E-02    0.972E-04
RMM:  15    -0.214528911649E+02   -0.73636E-06   -0.36747E-07    32   0.102E-02
  18 F= -.21473866E+02 E0= -.21473866E+02  d E =-.124174E-01  mag=     1.0000
       N       E                     dE             d eps       ncg     rms          rms(c)
DAV:   1    -0.215436368903E+02   -0.90746E-01   -0.36875E+00    60   0.304E+01    0.202E+00
RMM:   2    -0.214635769464E+02    0.80060E-01   -0.22935E-01    49   0.677E+00    0.676E-01
RMM:   3    -0.214556407130E+02    0.79362E-02   -0.47659E-02    54   0.216E+00    0.348E-01
RMM:   4    -0.214555143423E+02    0.12637E-03   -0.73325E-03    51   0.107E+00    0.171E-01
RMM:   5    -0.214559380103E+02   -0.42367E-03   -0.12390E-03    48   0.389E-01    0.792E-02
RMM:   6    -0.214561959646E+02   -0.25795E-03   -0.18762E-04    50   0.201E-01    0.419E-02
RMM:   7    -0.214563892050E+02   -0.19324E-03   -0.67783E-05    49   0.845E-02    0.199E-02
RMM:   8    -0.214565046008E+02   -0.11540E-03   -0.25914E-05    47   0.523E-02    0.125E-02
RMM:   9    -0.214566196496E+02   -0.11505E-03   -0.21858E-05    45   0.391E-02    0.736E-03
RMM:  10    -0.214566567031E+02   -0.37054E-04   -0.66401E-06    40   0.239E-02    0.318E-03
RMM:  11    -0.214566740509E+02   -0.17348E-04   -0.34639E-06    39   0.156E-02    0.216E-03
RMM:  12    -0.214566789383E+02   -0.48874E-05   -0.11208E-06    34   0.137E-02    0.158E-03
RMM:  13    -0.214566794962E+02   -0.55794E-06   -0.37898E-07    32   0.809E-03
  19 F= -.21478598E+02 E0= -.21478598E+02  d E =-.473215E-02  mag=     1.0000
       N       E                     dE             d eps       ncg     rms          rms(c)
DAV:   1    -0.214566786002E+02    0.33813E-06   -0.26179E-04    96   0.256E-01    0.179E-02
RMM:   2    -0.214566728257E+02    0.57745E-05   -0.16839E-05    48   0.549E-02    0.565E-03
RMM:   3    -0.214566722276E+02    0.59811E-06   -0.36607E-06    42   0.201E-02    0.269E-03
RMM:   4    -0.214566722775E+02   -0.49864E-07   -0.10104E-06    29   0.166E-02    0.126E-03
RMM:   5    -0.214566723571E+02   -0.79650E-07   -0.30715E-07    29   0.770E-03
  20 F= -.21478599E+02 E0= -.21478599E+02  d E =-.473321E-02  mag=     1.0000
       N       E                     dE             d eps       ncg     rms          rms(c)
DAV:   1    -0.214931997017E+02   -0.36527E-01   -0.13881E+00    72   0.177E+01    0.120E+00
RMM:   2    -0.214639107189E+02    0.29289E-01   -0.72659E-02    50   0.401E+00    0.426E-01
RMM:   3    -0.214604573117E+02    0.34534E-02   -0.22392E-02    55   0.136E+00    0.161E-01
RMM:   4    -0.214601919582E+02    0.26535E-03   -0.22464E-03    51   0.720E-01    0.906E-02
RMM:   5    -0.214603273472E+02   -0.13539E-03   -0.38337E-04    48   0.211E-01    0.546E-02
RMM:   6    -0.214604239643E+02   -0.96617E-04   -0.87085E-05    50   0.130E-01    0.331E-02
RMM:   7    -0.214605179417E+02   -0.93977E-04   -0.41994E-05    49   0.644E-02    0.147E-02
RMM:   8    -0.214605709152E+02   -0.52973E-04   -0.14059E-05    46   0.419E-02    0.946E-03
RMM:   9    -0.214606120511E+02   -0.41136E-04   -0.81452E-06    42   0.237E-02    0.467E-03
RMM:  10    -0.214606254954E+02   -0.13444E-04   -0.25624E-06    36   0.203E-02    0.240E-03
RMM:  11    -0.214606297995E+02   -0.43041E-05   -0.10315E-06    34   0.113E-02    0.182E-03
RMM:  12    -0.214606321827E+02   -0.23832E-05   -0.63640E-07    32   0.105E-02    0.108E-03
RMM:  13    -0.214606327942E+02   -0.61145E-06   -0.27226E-07    32   0.829E-03
  21 F= -.21483162E+02 E0= -.21483162E+02  d E =-.456296E-02  mag=     1.0000
       N       E                     dE             d eps       ncg     rms          rms(c)
DAV:   1    -0.214645714325E+02   -0.39392E-02   -0.16401E-01    72   0.614E+00    0.410E-01
RMM:   2    -0.214611363750E+02    0.34351E-02   -0.84091E-03    50   0.139E+00    0.146E-01
RMM:   3    -0.214607198867E+02    0.41649E-03   -0.26140E-03    54   0.469E-01    0.547E-02
RMM:   4    -0.214606863714E+02    0.33515E-04   -0.30350E-04    51   0.281E-01    0.316E-02
RMM:   5    -0.214606988404E+02   -0.12469E-04   -0.48254E-05    48   0.730E-02    0.195E-02
RMM:   6    -0.214607073344E+02   -0.84940E-05   -0.92142E-06    48   0.500E-02    0.119E-02
RMM:   7    -0.214607148698E+02   -0.75354E-05   -0.55056E-06    42   0.242E-02    0.447E-03
RMM:   8    -0.214607180817E+02   -0.32120E-05   -0.99202E-07    32   0.162E-02    0.296E-03
RMM:   9    -0.214607203121E+02   -0.22303E-05   -0.55813E-07    32   0.110E-02    0.168E-03
RMM:  10    -0.214607214960E+02   -0.11839E-05   -0.32718E-07    32   0.956E-03    0.957E-04
RMM:  11    -0.214607219115E+02   -0.41552E-06   -0.14659E-07    31   0.589E-03
  22 F= -.21483465E+02 E0= -.21483465E+02  d E =-.486555E-02  mag=     1.0000
       N       E                     dE             d eps       ncg     rms          rms(c)
DAV:   1    -0.214759998098E+02   -0.15278E-01   -0.73527E-01    72   0.131E+01    0.757E-01
RMM:   2    -0.214646728056E+02    0.11327E-01   -0.31332E-02    50   0.277E+00    0.262E-01
RMM:   3    -0.214633099699E+02    0.13628E-02   -0.72682E-03    52   0.803E-01    0.131E-01
RMM:   4    -0.214632051797E+02    0.10479E-03   -0.13425E-03    51   0.682E-01    0.728E-02
RMM:   5    -0.214632585681E+02   -0.53388E-04   -0.22992E-04    50   0.156E-01    0.355E-02
RMM:   6    -0.214633004288E+02   -0.41861E-04   -0.33809E-05    48   0.982E-02    0.201E-02
RMM:   7    -0.214633286964E+02   -0.28268E-04   -0.16400E-05    51   0.423E-02    0.789E-03
RMM:   8    -0.214633386906E+02   -0.99943E-05   -0.24006E-06    36   0.227E-02    0.492E-03
RMM:   9    -0.214633492513E+02   -0.10561E-04   -0.23452E-06    36   0.155E-02    0.308E-03
RMM:  10    -0.214633521588E+02   -0.29075E-05   -0.56016E-07    32   0.130E-02    0.126E-03
RMM:  11    -0.214633532967E+02   -0.11378E-05   -0.30403E-07    32   0.797E-03    0.116E-03
RMM:  12    -0.214633537443E+02   -0.44762E-06   -0.16555E-07    30   0.602E-03
  23 F= -.21486513E+02 E0= -.21486513E+02  d E =-.304779E-02  mag=     1.0000
       N       E                     dE             d eps       ncg     rms          rms(c)
DAV:   1    -0.214883632961E+02   -0.25010E-01   -0.13945E+00    72   0.181E+01    0.104E+00
RMM:   2    -0.214666940398E+02    0.21669E-01   -0.59814E-02    50   0.388E+00    0.363E-01
RMM:   3    -0.214641354725E+02    0.25586E-02   -0.14141E-02    52   0.113E+00    0.180E-01
RMM:   4    -0.214639514026E+02    0.18407E-03   -0.26048E-03    51   0.976E-01    0.104E-01
RMM:   5    -0.214640576689E+02   -0.10627E-03   -0.43877E-04    51   0.216E-01    0.510E-02
RMM:   6    -0.214641391331E+02   -0.81464E-04   -0.62249E-05    48   0.127E-01    0.289E-02
RMM:   7    -0.214641949153E+02   -0.55782E-04   -0.32779E-05    52   0.595E-02    0.107E-02
RMM:   8    -0.214642136930E+02   -0.18778E-04   -0.53074E-06    43   0.309E-02    0.676E-03
RMM:   9    -0.214642334839E+02   -0.19791E-04   -0.46473E-06    42   0.198E-02    0.403E-03
RMM:  10    -0.214642395335E+02   -0.60497E-05   -0.10062E-06    33   0.157E-02    0.171E-03
RMM:  11    -0.214642411206E+02   -0.15871E-05   -0.44461E-07    32   0.972E-03    0.145E-03
RMM:  12    -0.214642419326E+02   -0.81196E-06   -0.32398E-07    31   0.756E-03
  24 F= -.21487995E+02 E0= -.21487995E+02  d E =-.453022E-02  mag=     1.0000
       N       E                     dE             d eps       ncg     rms          rms(c)
DAV:   1    -0.214790398473E+02   -0.14799E-01   -0.85551E-01    72   0.147E+01    0.828E-01
RMM:   2    -0.214675647624E+02    0.11475E-01   -0.34025E-02    50   0.305E+00    0.300E-01
RMM:   3    -0.214661679477E+02    0.13968E-02   -0.85092E-03    52   0.917E-01    0.136E-01
RMM:   4    -0.214662255708E+02   -0.57623E-04   -0.14805E-03    51   0.745E-01    0.759E-02
RMM:   5    -0.214663441474E+02   -0.11858E-03   -0.25799E-04    50   0.166E-01    0.372E-02
RMM:   6    -0.214663840934E+02   -0.39946E-04   -0.50774E-05    51   0.119E-01    0.210E-02
RMM:   7    -0.214664049093E+02   -0.20816E-04   -0.14562E-05    46   0.417E-02    0.810E-03
RMM:   8    -0.214664148687E+02   -0.99594E-05   -0.25660E-06    36   0.293E-02    0.519E-03
RMM:   9    -0.214664221793E+02   -0.73106E-05   -0.20609E-06    35   0.149E-02    0.263E-03
RMM:  10    -0.214664254696E+02   -0.32903E-05   -0.59973E-07    32   0.127E-02    0.118E-03
RMM:  11    -0.214664263165E+02   -0.84693E-06   -0.27072E-07    32   0.814E-03
  25 F= -.21490552E+02 E0= -.21490552E+02  d E =-.255701E-02  mag=     1.0000
       N       E                     dE             d eps       ncg     rms          rms(c)
DAV:   1    -0.214724086217E+02   -0.59832E-02   -0.39000E-01    72   0.997E+00    0.558E-01
RMM:   2    -0.214672168474E+02    0.51918E-02   -0.15322E-02    50   0.207E+00    0.203E-01
RMM:   3    -0.214665830113E+02    0.63384E-03   -0.39368E-03    53   0.625E-01    0.934E-02
RMM:   4    -0.214665985676E+02   -0.15556E-04   -0.61047E-04    51   0.456E-01    0.534E-02
RMM:   5    -0.214666466033E+02   -0.48036E-04   -0.10989E-04    49   0.115E-01    0.277E-02
RMM:   6    -0.214666612677E+02   -0.14664E-04   -0.21126E-05    50   0.822E-02    0.150E-02
RMM:   7    -0.214666711503E+02   -0.98826E-05   -0.68306E-06    46   0.285E-02    0.582E-03
RMM:   8    -0.214666753667E+02   -0.42164E-05   -0.88678E-07    32   0.178E-02    0.367E-03
RMM:   9    -0.214666783539E+02   -0.29872E-05   -0.80095E-07    32   0.113E-02    0.229E-03
RMM:  10    -0.214666795810E+02   -0.12271E-05   -0.33274E-07    32   0.104E-02    0.110E-03
RMM:  11    -0.214666800100E+02   -0.42902E-06   -0.16753E-07    30   0.622E-03
  26 F= -.21491064E+02 E0= -.21491064E+02  d E =-.306909E-02  mag=     1.0000
       N       E                     dE             d eps       ncg     rms          rms(c)
DAV:   1    -0.214720139308E+02   -0.53343E-02   -0.20721E-01    72   0.786E+00    0.450E-01
RMM:   2    -0.214684540627E+02    0.35599E-02   -0.11065E-02    50   0.169E+00    0.149E-01
RMM:   3    -0.214681291840E+02    0.32488E-03   -0.22215E-03    53   0.456E-01    0.838E-02
RMM:   4    -0.214681003392E+02    0.28845E-04   -0.36350E-04    51   0.365E-01    0.508E-02
RMM:   5    -0.214681236370E+02   -0.23298E-04   -0.75799E-05    51   0.100E-01    0.238E-02
RMM:   6    -0.214681365642E+02   -0.12927E-04   -0.16556E-05    48   0.586E-02    0.126E-02
RMM:   7    -0.214681426947E+02   -0.61305E-05   -0.30698E-06    39   0.276E-02    0.525E-03
RMM:   8    -0.214681464417E+02   -0.37470E-05   -0.83810E-07    32   0.169E-02    0.279E-03
RMM:   9    -0.214681489863E+02   -0.25446E-05   -0.46696E-07    32   0.994E-03    0.166E-03
RMM:  10    -0.214681504136E+02   -0.14272E-05   -0.27636E-07    31   0.866E-03    0.101E-03
RMM:  11    -0.214681508423E+02   -0.42877E-06   -0.13462E-07    30   0.584E-03
  27 F= -.21492747E+02 E0= -.21492747E+02  d E =-.168298E-02  mag=     1.0000
       N       E                     dE             d eps       ncg     rms          rms(c)
DAV:   1    -0.215047318501E+02   -0.36581E-01   -0.18860E+00    72   0.240E+01    0.136E+00
RMM:   2    -0.214719878353E+02    0.32744E-01   -0.10143E-01    50   0.518E+00    0.451E-01
RMM:   3    -0.214692619008E+02    0.27259E-02   -0.21098E-02    53   0.142E+00    0.248E-01
RMM:   4    -0.214690895221E+02    0.17238E-03   -0.33532E-03    51   0.116E+00    0.159E-01
RMM:   5    -0.214693369724E+02   -0.24745E-03   -0.67772E-04    52   0.303E-01    0.765E-02
RMM:   6    -0.214694677905E+02   -0.13082E-03   -0.15971E-04    48   0.175E-01    0.408E-02
RMM:   7    -0.214695275975E+02   -0.59807E-04   -0.33072E-05    51   0.884E-02    0.169E-02
RMM:   8    -0.214695616980E+02   -0.34101E-04   -0.12457E-05    50   0.495E-02    0.899E-03
RMM:   9    -0.214695834625E+02   -0.21764E-04   -0.38824E-06    38   0.203E-02    0.475E-03
RMM:  10    -0.214695987075E+02   -0.15245E-04   -0.29903E-06    36   0.241E-02    0.282E-03
RMM:  11    -0.214696019012E+02   -0.31938E-05   -0.61420E-07    32   0.124E-02    0.146E-03
RMM:  12    -0.214696038042E+02   -0.19030E-05   -0.30478E-07    32   0.843E-03    0.971E-04
RMM:  13    -0.214696061334E+02   -0.23291E-05   -0.53233E-07    32   0.719E-03    0.971E-04
RMM:  14    -0.214696062842E+02   -0.15081E-06   -0.14579E-07    31   0.676E-03
  28 F= -.21494870E+02 E0= -.21494870E+02  d E =-.380549E-02  mag=     1.0000
       N       E                     dE             d eps       ncg     rms          rms(c)
DAV:   1    -0.214725131016E+02   -0.29070E-02   -0.74323E-02    72   0.482E+00    0.286E-01
RMM:   2    -0.214708422852E+02    0.16708E-02   -0.44383E-03    50   0.105E+00    0.980E-02
RMM:   3    -0.214706932211E+02    0.14906E-03   -0.13299E-03    57   0.344E-01    0.417E-02
RMM:   4    -0.214706787273E+02    0.14494E-04   -0.10292E-04    51   0.153E-01    0.214E-02
RMM:   5    -0.214706856311E+02   -0.69038E-05   -0.20956E-05    51   0.574E-02    0.110E-02
RMM:   6    -0.214706895730E+02   -0.39419E-05   -0.47152E-06    43   0.298E-02    0.622E-03
RMM:   7    -0.214706915898E+02   -0.20168E-05   -0.11194E-06    33   0.203E-02    0.327E-03
RMM:   8    -0.214706924864E+02   -0.89666E-06   -0.52669E-07    32   0.131E-02
  29 F= -.21496107E+02 E0= -.21496107E+02  d E =-.123721E-02  mag=     1.0000
       N       E                     dE             d eps       ncg     rms          rms(c)
DAV:   1    -0.214885557377E+02   -0.17864E-01   -0.67784E-01    72   0.147E+01    0.866E-01
RMM:   2    -0.214732134957E+02    0.15342E-01   -0.40911E-02    50   0.324E+00    0.299E-01
RMM:   3    -0.214719171801E+02    0.12963E-02   -0.12327E-02    57   0.105E+00    0.128E-01
RMM:   4    -0.214717797635E+02    0.13742E-03   -0.93937E-04    51   0.476E-01    0.667E-02
RMM:   5    -0.214718611951E+02   -0.81432E-04   -0.19995E-04    52   0.175E-01    0.339E-02
RMM:   6    -0.214719057687E+02   -0.44574E-04   -0.48768E-05    51   0.933E-02    0.204E-02
RMM:   7    -0.214719259124E+02   -0.20144E-04   -0.10740E-05    49   0.465E-02    0.107E-02
RMM:   8    -0.214719372205E+02   -0.11308E-04   -0.42580E-06    40   0.274E-02    0.637E-03
RMM:   9    -0.214719429306E+02   -0.57100E-05   -0.13968E-06    33   0.180E-02    0.347E-03
RMM:  10    -0.214719440511E+02   -0.11205E-05   -0.52517E-07    32   0.141E-02    0.176E-03
RMM:  11    -0.214719445148E+02   -0.46376E-06   -0.28389E-07    32   0.891E-03
  30 F= -.21497825E+02 E0= -.21497825E+02  d E =-.295570E-02  mag=     1.0000
       N       E                     dE             d eps       ncg     rms          rms(c)
DAV:   1    -0.214761199361E+02   -0.41759E-02   -0.14990E-01    72   0.606E+00    0.338E-01
RMM:   2    -0.214738795655E+02    0.22404E-02   -0.60836E-03    50   0.130E+00    0.128E-01
RMM:   3    -0.214735851538E+02    0.29441E-03   -0.19268E-03    56   0.431E-01    0.647E-02
RMM:   4    -0.214735718803E+02    0.13274E-04   -0.21050E-04    51   0.238E-01    0.361E-02
RMM:   5    -0.214735795314E+02   -0.76511E-05   -0.32433E-05    50   0.744E-02    0.208E-02
RMM:   6    -0.214735845085E+02   -0.49771E-05   -0.55098E-06    44   0.428E-02    0.909E-03
RMM:   7    -0.214735885122E+02   -0.40037E-05   -0.29953E-06    38   0.218E-02    0.436E-03
RMM:   8    -0.214735897924E+02   -0.12802E-05   -0.66011E-07    32   0.181E-02    0.310E-03
RMM:   9    -0.214735907587E+02   -0.96631E-06   -0.44961E-07    32   0.993E-03
  31 F= -.21499666E+02 E0= -.21499666E+02  d E =-.184017E-02  mag=     1.0000
       N       E                     dE             d eps       ncg     rms          rms(c)
DAV:   1    -0.215009339365E+02   -0.27344E-01   -0.13645E+00    72   0.185E+01    0.103E+00
RMM:   2    -0.214802240127E+02    0.20710E-01   -0.56132E-02    50   0.399E+00    0.387E-01
RMM:   3    -0.214776251072E+02    0.25989E-02   -0.18106E-02    57   0.132E+00    0.201E-01
RMM:   4    -0.214775120872E+02    0.11302E-03   -0.16246E-03    50   0.614E-01    0.102E-01
RMM:   5    -0.214776032569E+02   -0.91170E-04   -0.34534E-04    50   0.246E-01    0.460E-02
RMM:   6    -0.214776728113E+02   -0.69554E-04   -0.73384E-05    49   0.128E-01    0.238E-02
RMM:   7    -0.214777042542E+02   -0.31443E-04   -0.20795E-05    50   0.645E-02    0.149E-02
RMM:   8    -0.214777204390E+02   -0.16185E-04   -0.60260E-06    43   0.362E-02    0.997E-03
RMM:   9    -0.214777334099E+02   -0.12971E-04   -0.37670E-06    42   0.211E-02    0.433E-03
RMM:  10    -0.214777347366E+02   -0.13267E-05   -0.63812E-07    32   0.164E-02    0.255E-03
RMM:  11    -0.214777352562E+02   -0.51963E-06   -0.27739E-07    32   0.905E-03
  32 F= -.21504412E+02 E0= -.21504412E+02  d E =-.658676E-02  mag=     1.0000
       N       E                     dE             d eps       ncg     rms          rms(c)
DAV:   1    -0.215786922107E+02   -0.10096E+00   -0.55927E+00    72   0.381E+01    0.211E+00
RMM:   2    -0.214923691150E+02    0.86323E-01   -0.23491E-01    50   0.834E+00    0.787E-01
RMM:   3    -0.214818935044E+02    0.10476E-01   -0.77580E-02    57   0.281E+00    0.424E-01
RMM:   4    -0.214815795488E+02    0.31396E-03   -0.68283E-03    51   0.135E+00    0.221E-01
RMM:   5    -0.214819271899E+02   -0.34764E-03   -0.15053E-03    51   0.508E-01    0.984E-02
RMM:   6    -0.214822139874E+02   -0.28680E-03   -0.30126E-04    49   0.263E-01    0.520E-02
RMM:   7    -0.214823525009E+02   -0.13851E-03   -0.91382E-05    51   0.130E-01    0.321E-02
RMM:   8    -0.214824129810E+02   -0.60480E-04   -0.27408E-05    50   0.791E-02    0.217E-02
RMM:   9    -0.214824774719E+02   -0.64491E-04   -0.19066E-05    47   0.412E-02    0.921E-03
RMM:  10    -0.214824829546E+02   -0.54826E-05   -0.23861E-06    35   0.300E-02    0.541E-03
RMM:  11    -0.214824849313E+02   -0.19767E-05   -0.11166E-06    33   0.178E-02    0.294E-03
RMM:  12    -0.214824877920E+02   -0.28607E-05   -0.90075E-07    32   0.151E-02    0.271E-03
RMM:  13    -0.214824887563E+02   -0.96430E-06   -0.53598E-07    32   0.134E-02
  33 F= -.21510466E+02 E0= -.21510466E+02  d E =-.126407E-01  mag=     1.0000
       N       E                     dE             d eps       ncg     rms          rms(c)
DAV:   1    -0.218908499310E+02   -0.40836E+00   -0.23455E+01    72   0.814E+01    0.444E+00
RMM:   2    -0.215198093427E+02    0.37104E+00   -0.10354E+00    51   0.181E+01    0.164E+00
RMM:   3    -0.214768360407E+02    0.42973E-01   -0.33516E-01    58   0.594E+00    0.902E-01
RMM:   4    -0.214750089552E+02    0.18271E-02   -0.26588E-02    53   0.256E+00    0.528E-01
RMM:   5    -0.214760383539E+02   -0.10294E-02   -0.48253E-03    55   0.939E-01    0.294E-01
RMM:   6    -0.214767863196E+02   -0.74797E-03   -0.10320E-03    52   0.471E-01    0.161E-01
RMM:   7    -0.214774958511E+02   -0.70953E-03   -0.70928E-04    51   0.287E-01    0.682E-02
RMM:   8    -0.214777178715E+02   -0.22202E-03   -0.15093E-04    52   0.174E-01    0.451E-02
RMM:   9    -0.214779077948E+02   -0.18992E-03   -0.66979E-05    50   0.886E-02    0.245E-02
RMM:  10    -0.214779575081E+02   -0.49713E-04   -0.16270E-05    49   0.683E-02    0.104E-02
RMM:  11    -0.214779767934E+02   -0.19285E-04   -0.82276E-06    48   0.371E-02    0.583E-03
RMM:  12    -0.214779824831E+02   -0.56897E-05   -0.21739E-06    37   0.229E-02    0.394E-03
RMM:  13    -0.214779849502E+02   -0.24671E-05   -0.20552E-06    35   0.182E-02    0.332E-03
RMM:  14    -0.214779856430E+02   -0.69274E-06   -0.51952E-07    32   0.181E-02
  34 F= -.21508997E+02 E0= -.21508997E+02  d E =-.111716E-01  mag=     1.0000
       N       E                     dE             d eps       ncg     rms          rms(c)
DAV:   1    -0.216303395670E+02   -0.15235E+00   -0.82853E+00    72   0.477E+01    0.269E+00
RMM:   2    -0.215011683138E+02    0.12917E+00   -0.32465E-01    50   0.106E+01    0.970E-01
RMM:   3    -0.214842889209E+02    0.16879E-01   -0.11465E-01    57   0.355E+00    0.646E-01
RMM:   4    -0.214828665272E+02    0.14224E-02   -0.11242E-02    51   0.182E+00    0.365E-01
RMM:   5    -0.214824884693E+02    0.37806E-03   -0.32876E-03    53   0.658E-01    0.143E-01
RMM:   6    -0.214824967993E+02   -0.83300E-05   -0.48113E-04    51   0.359E-01    0.662E-02
RMM:   7    -0.214825166861E+02   -0.19887E-04   -0.11206E-04    55   0.154E-01    0.375E-02
RMM:   8    -0.214825273172E+02   -0.10631E-04   -0.24802E-05    53   0.771E-02    0.257E-02
RMM:   9    -0.214825437228E+02   -0.16406E-04   -0.13696E-05    47   0.438E-02    0.100E-02
RMM:  10    -0.214825466040E+02   -0.28813E-05   -0.20453E-06    34   0.266E-02    0.607E-03
RMM:  11    -0.214825493411E+02   -0.27370E-05   -0.11217E-06    33   0.179E-02    0.308E-03
RMM:  12    -0.214825532474E+02   -0.39064E-05   -0.12388E-06    32   0.158E-02    0.314E-03
RMM:  13    -0.214825544137E+02   -0.11663E-05   -0.55309E-07    32   0.142E-02    0.161E-03
RMM:  14    -0.214825549725E+02   -0.55881E-06   -0.27933E-07    31   0.108E-02
  35 F= -.21511700E+02 E0= -.21511700E+02  d E =-.138750E-01  mag=     1.0000
       N       E                     dE             d eps       ncg     rms          rms(c)
DAV:   1    -0.214876198691E+02   -0.50655E-02   -0.20770E-01    84   0.768E+00    0.416E-01
RMM:   2    -0.214844655261E+02    0.31543E-02   -0.97632E-03    52   0.161E+00    0.163E-01
RMM:   3    -0.214840933780E+02    0.37215E-03   -0.21859E-03    55   0.481E-01    0.858E-02
RMM:   4    -0.214840726121E+02    0.20766E-04   -0.42033E-04    54   0.391E-01    0.498E-02
RMM:   5    -0.214840864164E+02   -0.13804E-04   -0.54424E-05    52   0.102E-01    0.263E-02
RMM:   6    -0.214840954252E+02   -0.90087E-05   -0.83758E-06    46   0.520E-02    0.121E-02
RMM:   7    -0.214841016214E+02   -0.61962E-05   -0.39577E-06    40   0.314E-02    0.525E-03
RMM:   8    -0.214841036655E+02   -0.20441E-05   -0.94788E-07    32   0.219E-02    0.370E-03
RMM:   9    -0.214841047621E+02   -0.10967E-05   -0.45164E-07    32   0.139E-02    0.240E-03
RMM:  10    -0.214841055106E+02   -0.74845E-06   -0.36426E-07    31   0.103E-02
  36 F= -.21513531E+02 E0= -.21513531E+02  d E =-.183022E-02  mag=     1.0000
       N       E                     dE             d eps       ncg     rms          rms(c)
DAV:   1    -0.215182551331E+02   -0.34150E-01   -0.18859E+00    72   0.235E+01    0.125E+00
RMM:   2    -0.214896448072E+02    0.28610E-01   -0.89174E-02    51   0.523E+00    0.456E-01
RMM:   3    -0.214862851404E+02    0.33597E-02   -0.21417E-02    54   0.158E+00    0.276E-01
RMM:   4    -0.214862226926E+02    0.62448E-04   -0.37976E-03    52   0.132E+00    0.173E-01
RMM:   5    -0.214863518359E+02   -0.12914E-03   -0.67713E-04    51   0.309E-01    0.856E-02
RMM:   6    -0.214864378624E+02   -0.86027E-04   -0.92323E-05    50   0.152E-01    0.399E-02
RMM:   7    -0.214864848697E+02   -0.47007E-04   -0.36684E-05    51   0.801E-02    0.158E-02
RMM:   8    -0.214864994733E+02   -0.14604E-04   -0.68172E-06    44   0.438E-02    0.112E-02
RMM:   9    -0.214865117188E+02   -0.12245E-04   -0.35613E-06    42   0.216E-02    0.697E-03
RMM:  10    -0.214865168367E+02   -0.51179E-05   -0.10889E-06    32   0.226E-02    0.299E-03
RMM:  11    -0.214865178764E+02   -0.10397E-05   -0.57688E-07    32   0.151E-02    0.241E-03
RMM:  12    -0.214865180869E+02   -0.21047E-06   -0.22207E-07    30   0.110E-02
  37 F= -.21516816E+02 E0= -.21516816E+02  d E =-.511518E-02  mag=     1.0000
       N       E                     dE             d eps       ncg     rms          rms(c)
DAV:   1    -0.216142953197E+02   -0.12778E+00   -0.77455E+00    72   0.488E+01    0.257E+00
RMM:   2    -0.214938268810E+02    0.12047E+00   -0.37069E-01    51   0.109E+01    0.915E-01
RMM:   3    -0.214814233916E+02    0.12403E-01   -0.10062E-01    57   0.345E+00    0.585E-01
RMM:   4    -0.214811436300E+02    0.27976E-03   -0.11131E-02    54   0.194E+00    0.394E-01
RMM:   5    -0.214815552661E+02   -0.41164E-03   -0.18723E-03    55   0.588E-01    0.211E-01
RMM:   6    -0.214818370689E+02   -0.28180E-03   -0.32646E-04    49   0.254E-01    0.901E-02
RMM:   7    -0.214820564585E+02   -0.21939E-03   -0.21127E-04    53   0.207E-01    0.361E-02
RMM:   8    -0.214821065831E+02   -0.50125E-04   -0.31288E-05    51   0.107E-01    0.246E-02
RMM:   9    -0.214821567801E+02   -0.50197E-04   -0.23578E-05    51   0.542E-02    0.128E-02
RMM:  10    -0.214821764822E+02   -0.19702E-04   -0.59171E-06    41   0.390E-02    0.593E-03
RMM:  11    -0.214821802305E+02   -0.37483E-05   -0.14174E-06    33   0.186E-02    0.243E-03
RMM:  12    -0.214821814774E+02   -0.12469E-05   -0.55401E-07    32   0.166E-02    0.169E-03
RMM:  13    -0.214821821968E+02   -0.71940E-06   -0.55704E-07    32   0.118E-02
  38 F= -.21514383E+02 E0= -.21514383E+02  d E =-.268301E-02  mag=     1.0000
       N       E                     dE             d eps       ncg     rms          rms(c)
DAV:   1    -0.215542309851E+02   -0.72050E-01   -0.39371E+00    72   0.342E+01    0.184E+00
RMM:   2    -0.214941553721E+02    0.60076E-01   -0.17468E-01    51   0.764E+00    0.667E-01
RMM:   3    -0.214871463979E+02    0.70090E-02   -0.45264E-02    55   0.232E+00    0.464E-01
RMM:   4    -0.214865675329E+02    0.57886E-03   -0.70410E-03    53   0.162E+00    0.306E-01
RMM:   5    -0.214865171066E+02    0.50426E-04   -0.13004E-03    52   0.443E-01    0.170E-01
RMM:   6    -0.214864783079E+02    0.38799E-04   -0.20408E-04    51   0.222E-01    0.531E-02
RMM:   7    -0.214864969576E+02   -0.18650E-04   -0.78216E-05    50   0.131E-01    0.236E-02
RMM:   8    -0.214865008858E+02   -0.39283E-05   -0.11575E-05    46   0.859E-02    0.159E-02
RMM:   9    -0.214865059591E+02   -0.50732E-05   -0.57610E-06    42   0.327E-02    0.905E-03
RMM:  10    -0.214865088286E+02   -0.28695E-05   -0.19115E-06    36   0.249E-02    0.376E-03
RMM:  11    -0.214865095253E+02   -0.69670E-06   -0.68588E-07    32   0.147E-02
  39 F= -.21517335E+02 E0= -.21517335E+02  d E =-.563449E-02  mag=     1.0000
       N       E                     dE             d eps       ncg     rms          rms(c)
DAV:   1    -0.214934833452E+02   -0.69745E-02   -0.26434E-01    96   0.902E+00    0.481E-01
RMM:   2    -0.214888823019E+02    0.46010E-02   -0.12639E-02    51   0.184E+00    0.183E-01
RMM:   3    -0.214883896432E+02    0.49266E-03   -0.38328E-03    56   0.628E-01    0.869E-02
RMM:   4    -0.214883505902E+02    0.39053E-04   -0.54696E-04    53   0.387E-01    0.571E-02
RMM:   5    -0.214883637565E+02   -0.13166E-04   -0.61598E-05    54   0.123E-01    0.286E-02
RMM:   6    -0.214883696719E+02   -0.59154E-05   -0.92340E-06    48   0.445E-02    0.167E-02
RMM:   7    -0.214883754460E+02   -0.57741E-05   -0.10500E-05    47   0.376E-02    0.733E-03
RMM:   8    -0.214883763865E+02   -0.94057E-06   -0.11351E-06    32   0.275E-02
  40 F= -.21519549E+02 E0= -.21519549E+02  d E =-.221367E-02  mag=     1.0000
       N       E                     dE             d eps       ncg     rms          rms(c)
DAV:   1    -0.215402744636E+02   -0.51899E-01   -0.24072E+00    72   0.277E+01    0.144E+00
RMM:   2    -0.214984872578E+02    0.41787E-01   -0.11347E-01    51   0.607E+00    0.537E-01
RMM:   3    -0.214942532658E+02    0.42340E-02   -0.38134E-02    58   0.198E+00    0.294E-01
RMM:   4    -0.214938653589E+02    0.38791E-03   -0.30792E-03    53   0.949E-01    0.159E-01
RMM:   5    -0.214939995402E+02   -0.13418E-03   -0.63951E-04    54   0.334E-01    0.863E-02
RMM:   6    -0.214940819127E+02   -0.82373E-04   -0.10425E-04    51   0.156E-01    0.507E-02
RMM:   7    -0.214941411000E+02   -0.59187E-04   -0.69609E-05    56   0.102E-01    0.236E-02
RMM:   8    -0.214941571174E+02   -0.16017E-04   -0.12498E-05    46   0.606E-02    0.157E-02
RMM:   9    -0.214941667130E+02   -0.95956E-05   -0.71476E-06    44   0.378E-02    0.775E-03
RMM:  10    -0.214941683801E+02   -0.16671E-05   -0.12776E-06    32   0.237E-02    0.416E-03
RMM:  11    -0.214941690186E+02   -0.63844E-06   -0.69935E-07    32   0.151E-02
  41 F= -.21526428E+02 E0= -.21526428E+02  d E =-.909346E-02  mag=     1.0000
       N       E                     dE             d eps       ncg     rms          rms(c)
DAV:   1    -0.217008012246E+02   -0.20663E+00   -0.99868E+00    72   0.581E+01    0.297E+00
RMM:   2    -0.215235950250E+02    0.17721E+00   -0.48394E-01    51   0.129E+01    0.111E+00
RMM:   3    -0.215069330215E+02    0.16662E-01   -0.17125E-01    58   0.432E+00    0.608E-01
RMM:   4    -0.215055892031E+02    0.13438E-02   -0.13335E-02    53   0.211E+00    0.329E-01
RMM:   5    -0.215060970916E+02   -0.50789E-03   -0.26810E-03    54   0.710E-01    0.185E-01
RMM:   6    -0.215063880546E+02   -0.29096E-03   -0.44438E-04    51   0.322E-01    0.116E-01
RMM:   7    -0.215066284094E+02   -0.24035E-03   -0.34217E-04    57   0.227E-01    0.582E-02
RMM:   8    -0.215067030416E+02   -0.74632E-04   -0.66330E-05    54   0.139E-01    0.359E-02
RMM:   9    -0.215067473687E+02   -0.44327E-04   -0.37031E-05    54   0.739E-02    0.190E-02
RMM:  10    -0.215067557480E+02   -0.83793E-05   -0.56334E-06    41   0.387E-02    0.918E-03
RMM:  11    -0.215067590942E+02   -0.33463E-05   -0.34777E-06    40   0.317E-02    0.539E-03
RMM:  12    -0.215067609505E+02   -0.18563E-05   -0.92120E-07    32   0.241E-02    0.407E-03
RMM:  13    -0.215067618418E+02   -0.89122E-06   -0.49183E-07    32   0.126E-02
  42 F= -.21541419E+02 E0= -.21541419E+02  d E =-.240844E-01  mag=     1.0000
       N       E                     dE             d eps       ncg     rms          rms(c)
DAV:   1    -0.223950843410E+02   -0.88832E+00   -0.42951E+01    72   0.127E+02    0.627E+00
RMM:   2    -0.216061298493E+02    0.78895E+00   -0.22317E+00    53   0.287E+01    0.240E+00
RMM:   3    -0.215375707997E+02    0.68559E-01   -0.74977E-01    58   0.943E+00    0.112E+00
RMM:   4    -0.215315815881E+02    0.59892E-02   -0.71930E-02    56   0.498E+00    0.650E-01
RMM:   5    -0.215337041781E+02   -0.21226E-02   -0.12181E-02    56   0.146E+00    0.374E-01
RMM:   6    -0.215343390303E+02   -0.63485E-03   -0.18233E-03    53   0.733E-01    0.267E-01
RMM:   7    -0.215351859835E+02   -0.84695E-03   -0.20115E-03    58   0.524E-01    0.133E-01
RMM:   8    -0.215354229774E+02   -0.23699E-03   -0.32630E-04    55   0.301E-01    0.812E-02
RMM:   9    -0.215355692861E+02   -0.14631E-03   -0.24920E-04    59   0.189E-01    0.511E-02
RMM:  10    -0.215356255084E+02   -0.56222E-04   -0.39748E-05    52   0.113E-01    0.238E-02
RMM:  11    -0.215356396333E+02   -0.14125E-04   -0.24047E-05    54   0.795E-02    0.969E-03
RMM:  12    -0.215356428304E+02   -0.31971E-05   -0.23957E-06    37   0.404E-02    0.703E-03
RMM:  13    -0.215356443596E+02   -0.15292E-05   -0.12613E-06    34   0.173E-02    0.397E-03
RMM:  14    -0.215356458990E+02   -0.15394E-05   -0.10817E-06    34   0.160E-02    0.390E-03
RMM:  15    -0.215356464058E+02   -0.50688E-06   -0.47231E-07    31   0.173E-02
  43 F= -.21576095E+02 E0= -.21576095E+02  d E =-.587605E-01  mag=     1.0000
       N       E                     dE             d eps       ncg     rms          rms(c)
DAV:   1    -0.257289680268E+02   -0.41933E+01   -0.19791E+02    72   0.291E+02    0.139E+01
RMM:   2    -0.219156244259E+02    0.38133E+01   -0.11261E+01    55   0.683E+01    0.614E+00
RMM:   3    -0.215956110063E+02    0.32001E+00   -0.36519E+00    57   0.211E+01    0.282E+00
RMM:   4    -0.215823359106E+02    0.13275E-01   -0.49038E-01    56   0.172E+01    0.250E+00
RMM:   5    -0.215861738768E+02   -0.38380E-02   -0.51240E-02    56   0.365E+00    0.149E+00
RMM:   6    -0.215866265056E+02   -0.45263E-03   -0.10643E-02    54   0.190E+00    0.109E+00
RMM:   7    -0.215882616683E+02   -0.16352E-02   -0.97337E-03    57   0.113E+00    0.582E-01
RMM:   8    -0.215894742310E+02   -0.12126E-02   -0.31628E-03    54   0.106E+00    0.275E-01
RMM:   9    -0.215895420695E+02   -0.67839E-04   -0.88713E-04    56   0.415E-01    0.149E-01
RMM:  10    -0.215896775940E+02   -0.13552E-03   -0.25646E-04    56   0.248E-01    0.980E-02
RMM:  11    -0.215898113916E+02   -0.13380E-03   -0.18666E-04    58   0.209E-01    0.383E-02
RMM:  12    -0.215898032096E+02    0.81820E-05   -0.24684E-05    53   0.133E-01    0.160E-02
RMM:  13    -0.215898044322E+02   -0.12226E-05   -0.14246E-05    54   0.523E-02    0.843E-03
RMM:  14    -0.215898062346E+02   -0.18025E-05   -0.31854E-06    38   0.337E-02    0.710E-03
RMM:  15    -0.215898069005E+02   -0.66588E-06   -0.12958E-06    35   0.228E-02
  44 F= -.21646288E+02 E0= -.21646288E+02  d E =-.128953E+00  mag=     1.0000
       N       E                     dE             d eps       ncg     rms          rms(c)
DAV:   1    -0.215918724009E+02   -0.20662E-02   -0.66346E-02    72   0.530E+00    0.281E-01
RMM:   2    -0.215906881504E+02    0.11843E-02   -0.29575E-03    51   0.122E+00    0.934E-02
RMM:   3    -0.215905644920E+02    0.12366E-03   -0.12556E-03    59   0.406E-01    0.749E-02
RMM:   4    -0.215905560889E+02    0.84031E-05   -0.11227E-04    57   0.204E-01    0.488E-02
RMM:   5    -0.215905542182E+02    0.18707E-05   -0.16956E-05    49   0.714E-02    0.272E-02
RMM:   6    -0.215905523064E+02    0.19118E-05   -0.66749E-06    48   0.506E-02    0.116E-02
RMM:   7    -0.215905525054E+02   -0.19904E-06   -0.27213E-06    38   0.425E-02
  45 F= -.21647360E+02 E0= -.21647360E+02  d E =-.107270E-02  mag=     1.0000
       N       E                     dE             d eps       ncg     rms          rms(c)
DAV:   1    -0.216046150839E+02   -0.14063E-01   -0.60151E-01    72   0.160E+01    0.840E-01
RMM:   2    -0.215939027455E+02    0.10712E-01   -0.26629E-02    51   0.371E+00    0.282E-01
RMM:   3    -0.215927760370E+02    0.11267E-02   -0.11442E-02    59   0.120E+00    0.221E-01
RMM:   4    -0.215927024269E+02    0.73610E-04   -0.95843E-04    57   0.622E-01    0.143E-01
RMM:   5    -0.215926885387E+02    0.13888E-04   -0.15589E-04    55   0.207E-01    0.787E-02
RMM:   6    -0.215926712123E+02    0.17326E-04   -0.51959E-05    50   0.139E-01    0.308E-02
RMM:   7    -0.215926717253E+02   -0.51297E-06   -0.21877E-05    49   0.111E-01    0.139E-02
RMM:   8    -0.215926721550E+02   -0.42968E-06   -0.51920E-06    44   0.583E-02
  46 F= -.21650474E+02 E0= -.21650474E+02  d E =-.418659E-02  mag=     1.0000
       N       E                     dE             d eps       ncg     rms          rms(c)
DAV:   1    -0.216450848822E+02   -0.52413E-01   -0.24425E+00    72   0.324E+01    0.167E+00
RMM:   2    -0.216012440158E+02    0.43841E-01   -0.11023E-01    51   0.755E+00    0.572E-01
RMM:   3    -0.215966924788E+02    0.45515E-02   -0.46866E-02    58   0.243E+00    0.438E-01
RMM:   4    -0.215964199456E+02    0.27253E-03   -0.41610E-03    56   0.144E+00    0.272E-01
RMM:   5    -0.215963991925E+02    0.20753E-04   -0.70815E-04    55   0.437E-01    0.145E-01
RMM:   6    -0.215963531057E+02    0.46087E-04   -0.20649E-04    52   0.307E-01    0.775E-02
RMM:   7    -0.215963534720E+02   -0.36626E-06   -0.87825E-05    52   0.161E-01    0.360E-02
RMM:   8    -0.215963540475E+02   -0.57551E-06   -0.17220E-05    47   0.113E-01    0.262E-02
RMM:   9    -0.215963560801E+02   -0.20327E-05   -0.73731E-06    43   0.517E-02    0.158E-02
RMM:  10    -0.215963560364E+02    0.43709E-07   -0.20737E-06    35   0.415E-02
  47 F= -.21656207E+02 E0= -.21656207E+02  d E =-.991984E-02  mag=     1.0000
       N       E                     dE             d eps       ncg     rms          rms(c)
DAV:   1    -0.218032481487E+02   -0.20689E+00   -0.10044E+01    72   0.662E+01    0.329E+00
RMM:   2    -0.216206285918E+02    0.18262E+00   -0.46719E-01    51   0.156E+01    0.118E+00
RMM:   3    -0.216022368453E+02    0.18392E-01   -0.19649E-01    58   0.490E+00    0.834E-01
RMM:   4    -0.216011417453E+02    0.10951E-02   -0.17523E-02    56   0.289E+00    0.490E-01
RMM:   5    -0.216012610326E+02   -0.11929E-03   -0.31477E-03    57   0.912E-01    0.262E-01
RMM:   6    -0.216012222942E+02    0.38738E-04   -0.69568E-04    54   0.486E-01    0.143E-01
RMM:   7    -0.216012403755E+02   -0.18081E-04   -0.31664E-04    54   0.287E-01    0.700E-02
RMM:   8    -0.216012420238E+02   -0.16483E-05   -0.57392E-05    53   0.172E-01    0.450E-02
RMM:   9    -0.216012475709E+02   -0.55471E-05   -0.25566E-05    54   0.875E-02    0.250E-02
RMM:  10    -0.216012466712E+02    0.89976E-06   -0.55590E-06    44   0.541E-02
  48 F= -.21665458E+02 E0= -.21665458E+02  d E =-.191707E-01  mag=     1.0000
       N       E                     dE             d eps       ncg     rms          rms(c)
DAV:   1    -0.224656011230E+02   -0.86435E+00   -0.42455E+01    72   0.138E+02    0.651E+00
RMM:   2    -0.216778061604E+02    0.78779E+00   -0.21059E+00    52   0.329E+01    0.253E+00
RMM:   3    -0.215964132696E+02    0.81393E-01   -0.77304E-01    56   0.102E+01    0.159E+00
RMM:   4    -0.215970861655E+02   -0.67290E-03   -0.15026E-01    57   0.992E+00    0.153E+00
RMM:   5    -0.215980552001E+02   -0.96903E-03   -0.10499E-02    55   0.192E+00    0.663E-01
RMM:   6    -0.215983547693E+02   -0.29957E-03   -0.21014E-03    53   0.102E+00    0.427E-01
RMM:   7    -0.215986139643E+02   -0.25920E-03   -0.25974E-03    55   0.570E-01    0.176E-01
RMM:   8    -0.215986084388E+02    0.55256E-05   -0.29293E-04    53   0.519E-01    0.730E-02
RMM:   9    -0.215986100958E+02   -0.16570E-05   -0.15673E-04    58   0.133E-01    0.557E-02
RMM:  10    -0.215986067720E+02    0.33238E-05   -0.32277E-05    54   0.130E-01    0.392E-02
RMM:  11    -0.215986078200E+02   -0.10480E-05   -0.10928E-05    49   0.475E-02    0.132E-02
RMM:  12    -0.215986076844E+02    0.13559E-06   -0.21783E-06    35   0.533E-02
  49 F= -.21672636E+02 E0= -.21672636E+02  d E =-.263486E-01  mag=     1.0000
       N       E                     dE             d eps       ncg     rms          rms(c)
DAV:   1    -0.220041133274E+02   -0.40551E+00   -0.19540E+01    72   0.932E+01    0.603E+00
RMM:   2    -0.216476560571E+02    0.35646E+00   -0.80488E-01    51   0.218E+01    0.168E+00
RMM:   3    -0.216078307309E+02    0.39825E-01   -0.36814E-01    58   0.708E+00    0.173E+00
RMM:   4    -0.216056710672E+02    0.21597E-02   -0.27323E-02    54   0.346E+00    0.129E+00
RMM:   5    -0.216042651920E+02    0.14059E-02   -0.55909E-03    57   0.145E+00    0.672E-01
RMM:   6    -0.216032186027E+02    0.10466E-02   -0.31939E-03    51   0.813E-01    0.174E-01
RMM:   7    -0.216030642943E+02    0.15431E-03   -0.98575E-04    52   0.722E-01    0.101E-01
RMM:   8    -0.216030857811E+02   -0.21487E-04   -0.47807E-04    56   0.300E-01    0.834E-02
RMM:   9    -0.216030990153E+02   -0.13234E-04   -0.82446E-05    52   0.219E-01    0.519E-02
RMM:  10    -0.216030964242E+02    0.25912E-05   -0.21619E-05    49   0.681E-02    0.460E-02
RMM:  11    -0.216030906576E+02    0.57665E-05   -0.97050E-06    47   0.737E-02    0.214E-02
RMM:  12    -0.216030896980E+02    0.95963E-06   -0.10895E-05    43   0.435E-02    0.638E-03
RMM:  13    -0.216030900180E+02   -0.31996E-06   -0.15202E-06    34   0.456E-02
  50 F= -.21670302E+02 E0= -.21670302E+02  d E =-.240149E-01  mag=     1.0000
       N       E                     dE             d eps       ncg     rms          rms(c)
DAV:   1    -0.216312920251E+02   -0.28202E-01   -0.82301E-01    84   0.194E+01    0.980E-01
RMM:   2    -0.216160671886E+02    0.15225E-01   -0.41292E-02    52   0.451E+00    0.361E-01
RMM:   3    -0.216143490990E+02    0.17181E-02   -0.12334E-02    56   0.132E+00    0.223E-01
RMM:   4    -0.216143546974E+02   -0.55983E-05   -0.38295E-03    57   0.167E+00    0.220E-01
RMM:   5    -0.216143599837E+02   -0.52863E-05   -0.23875E-04    54   0.322E-01    0.126E-01
RMM:   6    -0.216143491247E+02    0.10859E-04   -0.40224E-05    52   0.127E-01    0.861E-02
RMM:   7    -0.216143431915E+02    0.59332E-05   -0.44323E-05    55   0.887E-02    0.235E-02
RMM:   8    -0.216143414094E+02    0.17822E-05   -0.54201E-06    44   0.689E-02    0.838E-03
RMM:   9    -0.216143408495E+02    0.55990E-06   -0.40326E-06    40   0.291E-02
  51 F= -.21682933E+02 E0= -.21682933E+02  d E =-.126301E-01  mag=     1.0000
       N       E                     dE             d eps       ncg     rms          rms(c)
DAV:   1    -0.218025494213E+02   -0.18821E+00   -0.75497E+00    72   0.593E+01    0.299E+00
RMM:   2    -0.216626876372E+02    0.13986E+00   -0.37023E-01    51   0.141E+01    0.101E+00
RMM:   3    -0.216470288603E+02    0.15659E-01   -0.12171E-01    55   0.420E+00    0.668E-01
RMM:   4    -0.216477641074E+02   -0.73525E-03   -0.34682E-02    56   0.534E+00    0.671E-01
RMM:   5    -0.216479512758E+02   -0.18717E-03   -0.19400E-03    54   0.934E-01    0.428E-01
RMM:   6    -0.216479133043E+02    0.37971E-04   -0.36852E-04    55   0.436E-01    0.301E-01
RMM:   7    -0.216478683712E+02    0.44933E-04   -0.38678E-04    58   0.239E-01    0.766E-02
RMM:   8    -0.216478500803E+02    0.18291E-04   -0.45491E-05    51   0.176E-01    0.339E-02
RMM:   9    -0.216478457636E+02    0.43167E-05   -0.47264E-05    53   0.864E-02    0.238E-02
RMM:  10    -0.216478459656E+02   -0.20204E-06   -0.12699E-05    50   0.956E-02    0.203E-02
RMM:  11    -0.216478463279E+02   -0.36224E-06   -0.31586E-06    40   0.266E-02
  52 F= -.21720750E+02 E0= -.21720750E+02  d E =-.504473E-01  mag=     1.0000
       N       E                     dE             d eps       ncg     rms          rms(c)
DAV:   1    -0.223696982622E+02   -0.72185E+00   -0.31742E+01    72   0.123E+02    0.586E+00
RMM:   2    -0.217720111752E+02    0.59769E+00   -0.16272E+00    53   0.294E+01    0.205E+00
RMM:   3    -0.217080086800E+02    0.64002E-01   -0.50572E-01    55   0.855E+00    0.134E+00
RMM:   4    -0.217115323187E+02   -0.35236E-02   -0.14217E-01    57   0.108E+01    0.135E+00
RMM:   5    -0.217123079800E+02   -0.77566E-03   -0.85480E-03    56   0.175E+00    0.745E-01
RMM:   6    -0.217124832878E+02   -0.17531E-03   -0.15514E-03    55   0.916E-01    0.458E-01
RMM:   7    -0.217125245519E+02   -0.41264E-04   -0.15284E-03    57   0.475E-01    0.137E-01
RMM:   8    -0.217124975623E+02    0.26990E-04   -0.15105E-04    54   0.350E-01    0.723E-02
RMM:   9    -0.217124900318E+02    0.75305E-05   -0.11730E-04    58   0.117E-01    0.466E-02
RMM:  10    -0.217124875035E+02    0.25283E-05   -0.33390E-05    55   0.119E-01    0.299E-02
RMM:  11    -0.217124874523E+02    0.51189E-07   -0.55579E-06    39   0.415E-02
  53 F= -.21794653E+02 E0= -.21794653E+02  d E =-.124350E+00  mag=     1.0000
       N       E                     dE             d eps       ncg     rms          rms(c)
DAV:   1    -0.247724595300E+02   -0.30600E+01   -0.14021E+02    72   0.261E+02    0.118E+01
RMM:   2    -0.220616330906E+02    0.27108E+01   -0.77153E+00    54   0.634E+01    0.457E+00
RMM:   3    -0.217949581153E+02    0.26667E+00   -0.22236E+00    56   0.176E+01    0.254E+00
RMM:   4    -0.218076524818E+02   -0.12694E-01   -0.58930E-01    57   0.225E+01    0.240E+00
RMM:   5    -0.218103397230E+02   -0.26872E-02   -0.38573E-02    59   0.288E+00    0.106E+00
RMM:   6    -0.218105268508E+02   -0.18713E-03   -0.51372E-03    52   0.186E+00    0.700E-01
RMM:   7    -0.218109511359E+02   -0.42429E-03   -0.58855E-03    58   0.101E+00    0.290E-01
RMM:   8    -0.218109857699E+02   -0.34634E-04   -0.10487E-03    53   0.860E-01    0.104E-01
RMM:   9    -0.218109115506E+02    0.74219E-04   -0.39516E-04    58   0.281E-01    0.820E-02
RMM:  10    -0.218109095350E+02    0.20156E-05   -0.11688E-04    57   0.207E-01    0.437E-02
RMM:  11    -0.218109053737E+02    0.41612E-05   -0.20878E-05    51   0.867E-02    0.275E-02
RMM:  12    -0.218109044291E+02    0.94466E-06   -0.98315E-06    43   0.688E-02
  54 F= -.21913536E+02 E0= -.21913536E+02  d E =-.243234E+00  mag=     1.0000
       N       E                     dE             d eps       ncg     rms          rms(c)
DAV:   1    -0.219198561535E+02   -0.10895E+00   -0.15076E+00    84   0.289E+01    0.140E+00
RMM:   2    -0.218922012762E+02    0.27655E-01   -0.90512E-02    54   0.695E+00    0.530E-01
RMM:   3    -0.218901334798E+02    0.20678E-02   -0.21328E-02    56   0.178E+00    0.341E-01
RMM:   4    -0.218899842997E+02    0.14918E-03   -0.38019E-03    55   0.153E+00    0.273E-01
RMM:   5    -0.218899977823E+02   -0.13483E-04   -0.42686E-04    57   0.377E-01    0.166E-01
RMM:   6    -0.218899732322E+02    0.24550E-04   -0.93905E-05    57   0.137E-01    0.815E-02
RMM:   7    -0.218899622950E+02    0.10937E-04   -0.32231E-05    56   0.109E-01    0.257E-02
RMM:   8    -0.218899609656E+02    0.13293E-05   -0.69195E-06    42   0.573E-02    0.865E-03
RMM:   9    -0.218899606681E+02    0.29755E-06   -0.25469E-06    38   0.496E-02
  55 F= -.21995009E+02 E0= -.21995009E+02  d E =-.814724E-01  mag=     1.0000
       N       E                     dE             d eps       ncg     rms          rms(c)
DAV:   1    -0.223091235581E+02   -0.41916E+00   -0.13802E+01    72   0.884E+01    0.422E+00
RMM:   2    -0.220582541158E+02    0.25087E+00   -0.79642E-01    54   0.212E+01    0.126E+00
RMM:   3    -0.220413580297E+02    0.16896E-01   -0.17741E-01    55   0.555E+00    0.862E-01
RMM:   4    -0.220425530199E+02   -0.11950E-02   -0.47907E-02    56   0.711E+00    0.942E-01
RMM:   5    -0.220429691483E+02   -0.41613E-03   -0.35850E-03    57   0.102E+00    0.751E-01
RMM:   6    -0.220429773564E+02   -0.82081E-05   -0.40889E-04    55   0.535E-01    0.536E-01
RMM:   7    -0.220428203393E+02    0.15702E-03   -0.61106E-04    55   0.402E-01    0.167E-01
RMM:   8    -0.220427556571E+02    0.64682E-04   -0.14669E-04    58   0.256E-01    0.849E-02
RMM:   9    -0.220427365091E+02    0.19148E-04   -0.54962E-05    54   0.117E-01    0.634E-02
RMM:  10    -0.220427310282E+02    0.54808E-05   -0.13374E-05    48   0.885E-02    0.484E-02
RMM:  11    -0.220427248792E+02    0.61491E-05   -0.17799E-05    54   0.701E-02    0.264E-02
RMM:  12    -0.220427232179E+02    0.16612E-05   -0.87782E-06    43   0.536E-02    0.130E-02
RMM:  13    -0.220427231510E+02    0.66886E-07   -0.41786E-06    38   0.400E-02
  56 F= -.22155511E+02 E0= -.22155511E+02  d E =-.241974E+00  mag=     1.0000
       N       E                     dE             d eps       ncg     rms          rms(c)
DAV:   1    -0.229040917982E+02   -0.86137E+00   -0.58177E+01    72   0.184E+02    0.840E+00
RMM:   2    -0.218594105264E+02    0.10447E+01   -0.31601E+00    55   0.416E+01    0.266E+00
RMM:   3    -0.218122793493E+02    0.47131E-01   -0.79199E-01    58   0.120E+01    0.190E+00
RMM:   4    -0.218180525998E+02   -0.57733E-02   -0.16173E-01    56   0.106E+01    0.142E+00
RMM:   5    -0.218192286083E+02   -0.11760E-02   -0.10444E-02    59   0.225E+00    0.949E-01
RMM:   6    -0.218191303037E+02    0.98305E-04   -0.19545E-03    57   0.639E-01    0.502E-01
RMM:   7    -0.218188986125E+02    0.23169E-03   -0.74884E-04    53   0.693E-01    0.108E-01
RMM:   8    -0.218188849820E+02    0.13631E-04   -0.29872E-04    60   0.243E-01    0.384E-02
RMM:   9    -0.218188736206E+02    0.11361E-04   -0.52900E-05    59   0.128E-01    0.233E-02
RMM:  10    -0.218188702677E+02    0.33530E-05   -0.17069E-05    50   0.640E-02    0.128E-02
RMM:  11    -0.218188695100E+02    0.75770E-06   -0.67476E-06    46   0.649E-02
  57 F= -.21949567E+02 E0= -.21949567E+02  d E =-.360311E-01  mag=     1.0000
       N       E                     dE             d eps       ncg     rms          rms(c)
DAV:   1    -0.227590616866E+02   -0.94019E+00   -0.37531E+01    72   0.150E+02    0.109E+01
RMM:   2    -0.221009856771E+02    0.65808E+00   -0.17422E+00    52   0.334E+01    0.224E+00
RMM:   3    -0.220663275007E+02    0.34658E-01   -0.56887E-01    60   0.105E+01    0.375E+00
RMM:   4    -0.220701175125E+02   -0.37900E-02   -0.54176E-02    57   0.496E+00    0.342E+00
RMM:   5    -0.220704307932E+02   -0.31328E-03   -0.36267E-03    57   0.150E+00    0.282E+00
RMM:   6    -0.220685587087E+02    0.18721E-02   -0.42005E-03    54   0.120E+00    0.126E+00
RMM:   7    -0.220662684370E+02    0.22903E-02   -0.48853E-03    59   0.954E-01    0.895E-01
RMM:   8    -0.220658539005E+02    0.41454E-03   -0.15979E-03    57   0.757E-01    0.632E-01
RMM:   9    -0.220657823749E+02    0.71526E-04   -0.49557E-04    60   0.326E-01    0.397E-01
RMM:  10    -0.220657643492E+02    0.18026E-04   -0.13393E-04    57   0.199E-01    0.172E-01
RMM:  11    -0.220657550754E+02    0.92738E-05   -0.52208E-05    60   0.116E-01    0.247E-02
RMM:  12    -0.220657537952E+02    0.12802E-05   -0.54363E-06    40   0.506E-02    0.137E-02
RMM:  13    -0.220657530541E+02    0.74112E-06   -0.33912E-06    37   0.429E-02
  58 F= -.22181829E+02 E0= -.22181829E+02  d E =-.268293E+00  mag=     1.0000
       N       E                     dE             d eps       ncg     rms          rms(c)
DAV:   1    -0.220701577166E+02   -0.44039E-02   -0.19500E-01    84   0.107E+01    0.507E-01
RMM:   2    -0.220666385512E+02    0.35192E-02   -0.10392E-02    54   0.240E+00    0.181E-01
RMM:   3    -0.220664055688E+02    0.23298E-03   -0.22863E-03    56   0.656E-01    0.122E-01
RMM:   4    -0.220664199104E+02   -0.14342E-04   -0.79185E-04    54   0.869E-01    0.150E-01
RMM:   5    -0.220664222887E+02   -0.23783E-05   -0.49226E-05    56   0.144E-01    0.944E-02
RMM:   6    -0.220664213755E+02    0.91320E-06   -0.73388E-06    45   0.556E-02
  59 F= -.22183488E+02 E0= -.22183488E+02  d E =-.269952E+00  mag=     1.0000
       N       E                     dE             d eps       ncg     rms          rms(c)
DAV:   1    -0.221717030049E+02   -0.10528E+00   -0.18696E+00    84   0.345E+01    0.165E+00
RMM:   2    -0.221376570144E+02    0.34046E-01   -0.94381E-02    54   0.756E+00    0.537E-01
RMM:   3    -0.221353651512E+02    0.22919E-02   -0.29152E-02    60   0.231E+00    0.418E-01
RMM:   4    -0.221351987575E+02    0.16639E-03   -0.35104E-03    56   0.128E+00    0.357E-01
RMM:   5    -0.221351542427E+02    0.44515E-04   -0.35880E-04    59   0.424E-01    0.214E-01
RMM:   6    -0.221351036378E+02    0.50605E-04   -0.15626E-04    58   0.153E-01    0.715E-02
RMM:   7    -0.221350982645E+02    0.53733E-05   -0.34690E-05    57   0.134E-01    0.304E-02
RMM:   8    -0.221350978515E+02    0.41297E-06   -0.74861E-06    44   0.419E-02
  60 F= -.22255148E+02 E0= -.22255148E+02  d E =-.716597E-01  mag=     1.0000
       N       E                     dE             d eps       ncg     rms          rms(c)
DAV:   1    -0.226644877845E+02   -0.52939E+00   -0.17291E+01    96   0.105E+02    0.459E+00
RMM:   2    -0.223456811186E+02    0.31881E+00   -0.90320E-01    54   0.224E+01    0.173E+00
RMM:   3    -0.223293709582E+02    0.16310E-01   -0.30562E-01    61   0.690E+00    0.100E+00
RMM:   4    -0.223258532219E+02    0.35177E-02   -0.22104E-02    55   0.299E+00    0.546E-01
RMM:   5    -0.223257856090E+02    0.67613E-04   -0.44251E-03    57   0.114E+00    0.293E-01
RMM:   6    -0.223255990066E+02    0.18660E-03   -0.10891E-03    57   0.773E-01    0.155E-01
RMM:   7    -0.223255577025E+02    0.41304E-04   -0.32617E-04    61   0.278E-01    0.875E-02
RMM:   8    -0.223255510627E+02    0.66398E-05   -0.47603E-05    54   0.170E-01    0.442E-02
RMM:   9    -0.223255496519E+02    0.14108E-05   -0.28061E-05    56   0.968E-02    0.207E-02
RMM:  10    -0.223255486123E+02    0.10397E-05   -0.65230E-06    40   0.691E-02    0.801E-03
RMM:  11    -0.223255487340E+02   -0.12168E-06   -0.29779E-06    38   0.280E-02
  61 F= -.22455236E+02 E0= -.22455236E+02  d E =-.271748E+00  mag=     1.0000
       N       E                     dE             d eps       ncg     rms          rms(c)
DAV:   1    -0.239083430396E+02   -0.15828E+01   -0.73128E+01    96   0.218E+02    0.949E+00
RMM:   2    -0.225953302287E+02    0.13130E+01   -0.38302E+00    55   0.457E+01    0.382E+00
RMM:   3    -0.225313623851E+02    0.63968E-01   -0.12422E+00    63   0.136E+01    0.154E+00
RMM:   4    -0.225158375007E+02    0.15525E-01   -0.76524E-02    54   0.709E+00    0.875E-01
RMM:   5    -0.225168790790E+02   -0.10416E-02   -0.19893E-02    55   0.210E+00    0.666E-01
RMM:   6    -0.225163915923E+02    0.48749E-03   -0.36261E-03    56   0.147E+00    0.502E-01
RMM:   7    -0.225163027207E+02    0.88872E-04   -0.17313E-03    58   0.608E-01    0.281E-01
RMM:   8    -0.225161566751E+02    0.14605E-03   -0.35082E-04    55   0.515E-01    0.114E-01
RMM:   9    -0.225161126463E+02    0.44029E-04   -0.43216E-04    63   0.323E-01    0.556E-02
RMM:  10    -0.225161072823E+02    0.53640E-05   -0.27184E-05    52   0.141E-01    0.319E-02
RMM:  11    -0.225161060038E+02    0.12785E-05   -0.21353E-05    55   0.892E-02    0.202E-02
RMM:  12    -0.225161066308E+02   -0.62699E-06   -0.33356E-06    36   0.493E-02
  62 F= -.22668201E+02 E0= -.22668201E+02  d E =-.484712E+00  mag=     1.0000
       N       E                     dE             d eps       ncg     rms          rms(c)
DAV:   1    -0.228501957049E+02   -0.33409E+00   -0.11844E+01    84   0.794E+01    0.393E+00
RMM:   2    -0.226761323601E+02    0.17406E+00   -0.42685E-01    54   0.166E+01    0.152E+00
RMM:   3    -0.226575609066E+02    0.18571E-01   -0.20004E-01    63   0.663E+00    0.122E+00
RMM:   4    -0.226569898659E+02    0.57104E-03   -0.75404E-03    58   0.214E+00    0.895E-01
RMM:   5    -0.226566904806E+02    0.29939E-03   -0.16307E-03    60   0.665E-01    0.653E-01
RMM:   6    -0.226561989235E+02    0.49156E-03   -0.15391E-03    57   0.789E-01    0.208E-01
RMM:   7    -0.226562053341E+02   -0.64107E-05   -0.27644E-04    59   0.350E-01    0.101E-01
RMM:   8    -0.226562056761E+02   -0.34197E-06   -0.68713E-05    58   0.126E-01    0.489E-02
RMM:   9    -0.226562061522E+02   -0.47607E-06   -0.65861E-06    42   0.799E-02
  63 F= -.22816657E+02 E0= -.22816657E+02  d E =-.148457E+00  mag=     1.0000
       N       E                     dE             d eps       ncg     rms          rms(c)
DAV:   1    -0.236946313879E+02   -0.10384E+01   -0.55975E+01    72   0.174E+02    0.800E+00
RMM:   2    -0.228864922919E+02    0.80814E+00   -0.20296E+00    55   0.369E+01    0.346E+00
RMM:   3    -0.228006162629E+02    0.85876E-01   -0.87595E-01    61   0.146E+01    0.218E+00
RMM:   4    -0.227973647263E+02    0.32515E-02   -0.50071E-02    58   0.563E+00    0.181E+00
RMM:   5    -0.227968774742E+02    0.48725E-03   -0.10743E-02    59   0.136E+00    0.157E+00
RMM:   6    -0.227956595748E+02    0.12179E-02   -0.35552E-03    57   0.108E+00    0.559E-01
RMM:   7    -0.227952665245E+02    0.39305E-03   -0.19298E-03    59   0.640E-01    0.323E-01
RMM:   8    -0.227951950926E+02    0.71432E-04   -0.42074E-04    56   0.373E-01    0.135E-01
[...]
RMM:   2    -0.262888116428E+02    0.34192E-02   -0.56533E-01    55   0.151E+01    0.138E+00
RMM:   3    -0.262808684332E+02    0.79432E-02   -0.78616E-02    60   0.598E+00    0.131E+00
RMM:   4    -0.262787257049E+02    0.21427E-02   -0.14834E-02    62   0.220E+00    0.128E+00
RMM:   5    -0.262768101349E+02    0.19156E-02   -0.29045E-03    61   0.954E-01    0.843E-01
RMM:   6    -0.262752131398E+02    0.15970E-02   -0.28853E-03    58   0.761E-01    0.200E-01
RMM:   7    -0.262750376929E+02    0.17545E-03   -0.10859E-03    59   0.616E-01    0.185E-01
RMM:   8    -0.262750317797E+02    0.59133E-05   -0.17770E-04    57   0.250E-01    0.831E-02
RMM:   9    -0.262750157371E+02    0.16043E-04   -0.35298E-05    55   0.903E-02    0.521E-02
RMM:  10    -0.262749900531E+02    0.25684E-04   -0.34936E-05    57   0.121E-01    0.381E-02
RMM:  11    -0.262749879291E+02    0.21240E-05   -0.51826E-06    44   0.536E-02    0.232E-02
RMM:  12    -0.262749876544E+02    0.27475E-06   -0.12602E-06    34   0.361E-02
  97 F= -.26427491E+02 E0= -.26427491E+02  d E =-.100124E+00  mag=     1.0000
       N       E                     dE             d eps       ncg     rms          rms(c)
DAV:   1    -0.263136522249E+02   -0.38664E-01   -0.15227E+01    60   0.702E+01    0.261E+00
RMM:   2    -0.263112294104E+02    0.24228E-02   -0.31703E-01    53   0.111E+01    0.925E-01
RMM:   3    -0.263062054501E+02    0.50240E-02   -0.50745E-02    58   0.542E+00    0.793E-01
RMM:   4    -0.263055845012E+02    0.62095E-03   -0.14275E-02    63   0.189E+00    0.885E-01
RMM:   5    -0.263052411572E+02    0.34334E-03   -0.11991E-03    60   0.717E-01    0.638E-01
RMM:   6    -0.263045047357E+02    0.73642E-03   -0.92560E-04    61   0.498E-01    0.197E-01
RMM:   7    -0.263042266408E+02    0.27809E-03   -0.79521E-04    53   0.387E-01    0.132E-01
RMM:   8    -0.263042263612E+02    0.27962E-06   -0.17421E-04    53   0.398E-01    0.778E-02
RMM:   9    -0.263042246367E+02    0.17245E-05   -0.55469E-05    55   0.115E-01    0.428E-02
RMM:  10    -0.263042134512E+02    0.11186E-04   -0.93418E-06    47   0.102E-01    0.265E-02
RMM:  11    -0.263042078345E+02    0.56166E-05   -0.14660E-05    51   0.738E-02    0.149E-02
RMM:  12    -0.263042074574E+02    0.37711E-06   -0.19603E-06    36   0.493E-02
  98 F= -.26453694E+02 E0= -.26453694E+02  d E =-.126327E+00  mag=     1.0000
       N       E                     dE             d eps       ncg     rms          rms(c)
DAV:   1    -0.263977516162E+02   -0.93544E-01   -0.30505E+01    60   0.992E+01    0.546E+00
RMM:   2    -0.264052525264E+02   -0.75009E-02   -0.63248E-01    55   0.165E+01    0.171E+00
RMM:   3    -0.264081663964E+02   -0.29139E-02   -0.89048E-02    58   0.705E+00    0.132E+00
RMM:   4    -0.264075907896E+02    0.57561E-03   -0.21065E-02    63   0.206E+00    0.150E+00
RMM:   5    -0.264067803115E+02    0.81048E-03   -0.15518E-03    57   0.102E+00    0.116E+00
RMM:   6    -0.264050119928E+02    0.17683E-02   -0.16734E-03    59   0.563E-01    0.461E-01
RMM:   7    -0.264041987096E+02    0.81328E-03   -0.22134E-03    56   0.576E-01    0.331E-01
RMM:   8    -0.264041891737E+02    0.95359E-05   -0.27701E-04    55   0.549E-01    0.140E-01
RMM:   9    -0.264041725053E+02    0.16668E-04   -0.95219E-05    58   0.113E-01    0.446E-02
RMM:  10    -0.264041572110E+02    0.15294E-04   -0.14365E-05    48   0.127E-01    0.272E-02
RMM:  11    -0.264041513353E+02    0.58757E-05   -0.11122E-05    52   0.654E-02    0.159E-02
RMM:  12    -0.264041513252E+02    0.10060E-07   -0.27988E-06    38   0.422E-02
  99 F= -.26549794E+02 E0= -.26549794E+02  d E =-.961000E-01  mag=     1.0000
       N       E                     dE             d eps       ncg     rms          rms(c)
DAV:   1    -0.264239151849E+02   -0.19764E-01   -0.70669E+00    72   0.452E+01    0.214E+00
RMM:   2    -0.264196402420E+02    0.42749E-02   -0.96670E-02    60   0.588E+00    0.669E-01
RMM:   3    -0.264193499661E+02    0.29028E-03   -0.11030E-02    62   0.195E+00    0.578E-01
RMM:   4    -0.264189396176E+02    0.41035E-03   -0.23045E-03    61   0.845E-01    0.561E-01
RMM:   5    -0.264184979866E+02    0.44163E-03   -0.49291E-04    57   0.377E-01    0.362E-01
RMM:   6    -0.264181852866E+02    0.31270E-03   -0.70765E-04    61   0.374E-01    0.111E-01
RMM:   7    -0.264181549213E+02    0.30365E-04   -0.10450E-04    58   0.194E-01    0.483E-02
RMM:   8    -0.264181542440E+02    0.67736E-06   -0.32649E-05    53   0.823E-02    0.237E-02
RMM:   9    -0.264181534910E+02    0.75296E-06   -0.55543E-06    43   0.686E-02
 100 F= -.26562019E+02 E0= -.26562019E+02  d E =-.108325E+00  mag=     1.0000
       N       E                     dE             d eps       ncg     rms          rms(c)
DAV:   1    -0.264604984273E+02   -0.42344E-01   -0.25624E+00    60   0.240E+01    0.109E+00
RMM:   2    -0.264614339521E+02   -0.93552E-03   -0.49311E-02    51   0.386E+00    0.543E-01
RMM:   3    -0.264604259684E+02    0.10080E-02   -0.70703E-03    53   0.224E+00    0.345E-01
RMM:   4    -0.264600428248E+02    0.38314E-03   -0.27495E-03    62   0.702E-01    0.152E-01
RMM:   5    -0.264599525421E+02    0.90283E-04   -0.29978E-04    59   0.427E-01    0.111E-01
RMM:   6    -0.264599151513E+02    0.37391E-04   -0.13091E-04    60   0.152E-01    0.653E-02
RMM:   7    -0.264599057150E+02    0.94363E-05   -0.32161E-05    57   0.135E-01    0.212E-02
RMM:   8    -0.264599069683E+02   -0.12532E-05   -0.83886E-06    45   0.411E-02    0.103E-02
RMM:   9    -0.264599076791E+02   -0.71084E-06   -0.17551E-06    33   0.540E-02
 101 F= -.26603613E+02 E0= -.26603613E+02  d E =-.415935E-01  mag=     1.0000
       N       E                     dE             d eps       ncg     rms          rms(c)
DAV:   1    -0.264864309616E+02   -0.26524E-01   -0.48773E+00    72   0.330E+01    0.154E+00
RMM:   2    -0.264845251193E+02    0.19058E-02   -0.56372E-02    48   0.326E+00    0.649E-01
RMM:   3    -0.264817570301E+02    0.27681E-02   -0.97889E-03    51   0.360E+00    0.483E-01
RMM:   4    -0.264814297207E+02    0.32731E-03   -0.38874E-03    59   0.836E-01    0.248E-01
RMM:   5    -0.264812153841E+02    0.21434E-03   -0.56925E-04    55   0.729E-01    0.164E-01
RMM:   6    -0.264811006104E+02    0.11477E-03   -0.34199E-04    59   0.221E-01    0.897E-02
RMM:   7    -0.264810946640E+02    0.59465E-05   -0.59190E-05    58   0.205E-01    0.221E-02
RMM:   8    -0.264810953158E+02   -0.65182E-06   -0.17341E-05    46   0.503E-02    0.154E-02
RMM:   9    -0.264810964450E+02   -0.11293E-05   -0.66183E-06    39   0.962E-02    0.123E-02
RMM:  10    -0.264810974963E+02   -0.10512E-05   -0.34319E-06    35   0.296E-02    0.732E-03
RMM:  11    -0.264810977953E+02   -0.29902E-06   -0.11249E-06    34   0.396E-02
 102 F= -.26624568E+02 E0= -.26624568E+02  d E =-.625487E-01  mag=     1.0000
       N       E                     dE             d eps       ncg     rms          rms(c)
DAV:   1    -0.265095651133E+02   -0.28468E-01   -0.15717E+00    48   0.211E+01    0.133E+00
RMM:   2    -0.265079378313E+02    0.16273E-02   -0.50460E-02    52   0.459E+00    0.547E-01
RMM:   3    -0.265077341483E+02    0.20368E-03   -0.70668E-03    54   0.267E+00    0.409E-01
RMM:   4    -0.265078238649E+02   -0.89717E-04   -0.26592E-03    62   0.714E-01    0.447E-01
RMM:   5    -0.265078271358E+02   -0.32709E-05   -0.17588E-04    53   0.455E-01    0.392E-01
RMM:   6    -0.265077583075E+02    0.68828E-04   -0.19068E-04    61   0.216E-01    0.183E-01
RMM:   7    -0.265076860491E+02    0.72258E-04   -0.10664E-04    60   0.153E-01    0.270E-01
RMM:   8    -0.265076758325E+02    0.10217E-04   -0.25326E-05    54   0.817E-02    0.121E-01
RMM:   9    -0.265076745951E+02    0.12374E-05   -0.72606E-06    48   0.666E-02    0.419E-02
RMM:  10    -0.265076745697E+02    0.25442E-07   -0.28152E-06    37   0.369E-02
 103 F= -.26650934E+02 E0= -.26650934E+02  d E =-.263667E-01  mag=     1.0000
       N       E                     dE             d eps       ncg     rms          rms(c)
DAV:   1    -0.265247304693E+02   -0.17056E-01   -0.29191E+00    48   0.287E+01    0.186E+00
RMM:   2    -0.265216365249E+02    0.30939E-02   -0.93139E-02    52   0.622E+00    0.771E-01
RMM:   3    -0.265213118089E+02    0.32472E-03   -0.13525E-02    55   0.359E+00    0.599E-01
RMM:   4    -0.265214701660E+02   -0.15836E-03   -0.44767E-03    62   0.922E-01    0.627E-01
RMM:   5    -0.265214774005E+02   -0.72345E-05   -0.39856E-04    54   0.721E-01    0.564E-01
RMM:   6    -0.265213332458E+02    0.14415E-03   -0.28242E-04    61   0.265E-01    0.235E-01
RMM:   7    -0.265211797673E+02    0.15348E-03   -0.22528E-04    59   0.240E-01    0.403E-01
RMM:   8    -0.265211638480E+02    0.15919E-04   -0.51324E-05    54   0.121E-01    0.200E-01
RMM:   9    -0.265211626070E+02    0.12409E-05   -0.11227E-05    48   0.867E-02    0.126E-01
RMM:  10    -0.265211617377E+02    0.86936E-06   -0.76633E-06    49   0.467E-02
 104 F= -.26664049E+02 E0= -.26664049E+02  d E =-.394810E-01  mag=     1.0000
       N       E                     dE             d eps       ncg     rms          rms(c)
DAV:   1    -0.265323776059E+02   -0.11215E-01   -0.25036E+00    48   0.217E+01    0.925E-01
RMM:   2    -0.265336334257E+02   -0.12558E-02   -0.66455E-02    57   0.515E+00    0.452E-01
RMM:   3    -0.265320176709E+02    0.16158E-02   -0.98305E-03    59   0.236E+00    0.286E-01
RMM:   4    -0.265319031808E+02    0.11449E-03   -0.21598E-03    59   0.870E-01    0.169E-01
RMM:   5    -0.265317996937E+02    0.10349E-03   -0.37418E-04    56   0.408E-01    0.111E-01
RMM:   6    -0.265317688038E+02    0.30890E-04   -0.11844E-04    57   0.202E-01    0.660E-02
RMM:   7    -0.265317627369E+02    0.60668E-05   -0.35550E-05    56   0.139E-01    0.311E-02
RMM:   8    -0.265317616243E+02    0.11127E-05   -0.91932E-06    47   0.598E-02    0.168E-02
RMM:   9    -0.265317626543E+02   -0.10300E-05   -0.35941E-06    39   0.669E-02    0.915E-03
RMM:  10    -0.265317633811E+02   -0.72678E-06   -0.22009E-06    34   0.323E-02
 105 F= -.26674902E+02 E0= -.26674902E+02  d E =-.108528E-01  mag=     1.0000
       N       E                     dE             d eps       ncg     rms          rms(c)
DAV:   1    -0.265325532273E+02   -0.79057E-03   -0.80777E-02    96   0.386E+00    0.166E-01
RMM:   2    -0.265324358712E+02    0.11736E-03   -0.53597E-04    49   0.325E-01    0.783E-02
RMM:   3    -0.265323658525E+02    0.70019E-04   -0.12701E-04    54   0.302E-01    0.509E-02
RMM:   4    -0.265323515726E+02    0.14280E-04   -0.51627E-05    59   0.110E-01    0.281E-02
RMM:   5    -0.265323491715E+02    0.24011E-05   -0.90563E-06    44   0.878E-02    0.173E-02
RMM:   6    -0.265323491918E+02   -0.20273E-07   -0.27430E-06    38   0.423E-02
 106 F= -.26675440E+02 E0= -.26675440E+02  d E =-.113911E-01  mag=     1.0000
       N       E                     dE             d eps       ncg     rms          rms(c)
DAV:   1    -0.265424907019E+02   -0.10142E-01   -0.26812E+00    48   0.242E+01    0.150E+00
RMM:   2    -0.265451159614E+02   -0.26253E-02   -0.71389E-02    56   0.519E+00    0.581E-01
RMM:   3    -0.265444659959E+02    0.64997E-03   -0.75670E-03    60   0.198E+00    0.310E-01
RMM:   4    -0.265444647508E+02    0.12451E-05   -0.19088E-03    62   0.668E-01    0.232E-01
RMM:   5    -0.265442793261E+02    0.18542E-03   -0.28049E-04    60   0.391E-01    0.144E-01
RMM:   6    -0.265442114684E+02    0.67858E-04   -0.16216E-04    59   0.164E-01    0.497E-02
RMM:   7    -0.265442067657E+02    0.47027E-05   -0.36480E-05    56   0.144E-01    0.301E-02
RMM:   8    -0.265442063338E+02    0.43188E-06   -0.68637E-06    39   0.496E-02
 107 F= -.26687078E+02 E0= -.26687078E+02  d E =-.116384E-01  mag=     1.0000
       N       E                     dE             d eps       ncg     rms          rms(c)
DAV:   1    -0.265450571238E+02   -0.85036E-03   -0.20809E-01    72   0.667E+00    0.374E-01
RMM:   2    -0.265449729459E+02    0.84178E-04   -0.23268E-03    56   0.709E-01    0.146E-01
RMM:   3    -0.265448937841E+02    0.79162E-04   -0.33559E-04    57   0.481E-01    0.848E-02
RMM:   4    -0.265448587453E+02    0.35039E-04   -0.11514E-04    59   0.173E-01    0.582E-02
RMM:   5    -0.265448515776E+02    0.71678E-05   -0.18850E-05    54   0.110E-01    0.436E-02
RMM:   6    -0.265448492384E+02    0.23392E-05   -0.61091E-06    45   0.424E-02    0.289E-02
RMM:   7    -0.265448482985E+02    0.93989E-06   -0.44375E-06    44   0.714E-02
 108 F= -.26687659E+02 E0= -.26687659E+02  d E =-.122195E-01  mag=     1.0000
       N       E                     dE             d eps       ncg     rms          rms(c)
DAV:   1    -0.265485859384E+02   -0.37367E-02   -0.12592E+00    48   0.179E+01    0.658E-01
RMM:   2    -0.265509795474E+02   -0.23936E-02   -0.38011E-02    54   0.381E+00    0.305E-01
RMM:   3    -0.265509244475E+02    0.55100E-04   -0.39685E-03    56   0.179E+00    0.253E-01
RMM:   4    -0.265508979851E+02    0.26462E-04   -0.13823E-03    61   0.535E-01    0.161E-01
RMM:   5    -0.265508646317E+02    0.33353E-04   -0.14501E-04    56   0.325E-01    0.120E-01
RMM:   6    -0.265508326971E+02    0.31935E-04   -0.78714E-05    57   0.124E-01    0.658E-02
RMM:   7    -0.265508284514E+02    0.42457E-05   -0.21798E-05    51   0.115E-01    0.257E-02
RMM:   8    -0.265508288952E+02   -0.44380E-06   -0.49907E-06    42   0.501E-02
 109 F= -.26693015E+02 E0= -.26693015E+02  d E =-.535553E-02  mag=     1.0000
       N       E                     dE             d eps       ncg     rms          rms(c)
DAV:   1    -0.265506331461E+02    0.19531E-03   -0.13582E+00    48   0.185E+01    0.676E-01
RMM:   2    -0.265530278870E+02   -0.23947E-02   -0.40249E-02    53   0.381E+00    0.332E-01
RMM:   3    -0.265530644308E+02   -0.36544E-04   -0.43998E-03    56   0.190E+00    0.241E-01
RMM:   4    -0.265530110082E+02    0.53423E-04   -0.14213E-03    58   0.555E-01    0.163E-01
RMM:   5    -0.265529904911E+02    0.20517E-04   -0.18406E-04    54   0.413E-01    0.118E-01
RMM:   6    -0.265529538814E+02    0.36610E-04   -0.10432E-04    59   0.135E-01    0.600E-02
RMM:   7    -0.265529508771E+02    0.30043E-05   -0.20251E-05    52   0.108E-01    0.280E-02
RMM:   8    -0.265529517094E+02   -0.83224E-06   -0.50762E-06    40   0.546E-02
 110 F= -.26694515E+02 E0= -.26694515E+02  d E =-.685534E-02  mag=     1.0000
       N       E                     dE             d eps       ncg     rms          rms(c)
DAV:   1    -0.265599580453E+02   -0.70072E-02   -0.96055E-01    72   0.182E+01    0.102E+00
RMM:   2    -0.265562458053E+02    0.37122E-02   -0.17673E-02    57   0.323E+00    0.284E-01
RMM:   3    -0.265559751768E+02    0.27063E-03   -0.38849E-03    63   0.101E+00    0.338E-01
RMM:   4    -0.265558860272E+02    0.89150E-04   -0.36320E-04    57   0.473E-01    0.305E-01
RMM:   5    -0.265557784605E+02    0.10757E-03   -0.15318E-04    61   0.183E-01    0.211E-01
RMM:   6    -0.265556597393E+02    0.11872E-03   -0.27063E-04    56   0.237E-01    0.767E-02
RMM:   7    -0.265556522450E+02    0.74943E-05   -0.51605E-05    53   0.178E-01    0.501E-02
RMM:   8    -0.265556526631E+02   -0.41807E-06   -0.12418E-05    46   0.488E-02    0.247E-02
RMM:   9    -0.265556536619E+02   -0.99883E-06   -0.35208E-06    39   0.815E-02
 111 F= -.26696273E+02 E0= -.26696273E+02  d E =-.175786E-02  mag=     1.0000
       N       E                     dE             d eps       ncg     rms          rms(c)
DAV:   1    -0.265557319216E+02   -0.79259E-04   -0.33826E-02    72   0.337E+00    0.185E-01
RMM:   2    -0.265556051695E+02    0.12675E-03   -0.66459E-04    58   0.615E-01    0.511E-02
RMM:   3    -0.265555893309E+02    0.15839E-04   -0.12382E-04    59   0.176E-01    0.483E-02
RMM:   4    -0.265555845986E+02    0.47323E-05   -0.15019E-05    50   0.118E-01    0.435E-02
RMM:   5    -0.265555814830E+02    0.31156E-05   -0.58723E-06    43   0.414E-02    0.295E-02
RMM:   6    -0.265555789873E+02    0.24956E-05   -0.57080E-06    46   0.524E-02    0.110E-02
RMM:   7    -0.265555787120E+02    0.27534E-06   -0.26692E-06    38   0.338E-02
 112 F= -.26696374E+02 E0= -.26696374E+02  d E =-.185922E-02  mag=     1.0000
       N       E                     dE             d eps       ncg     rms          rms(c)
DAV:   1    -0.265642566054E+02   -0.86776E-02   -0.59766E-01    72   0.137E+01    0.900E-01
RMM:   2    -0.265601525821E+02    0.41040E-02   -0.11551E-02    56   0.258E+00    0.288E-01
RMM:   3    -0.265592299886E+02    0.92259E-03   -0.43488E-03    60   0.100E+00    0.264E-01
RMM:   4    -0.265591079659E+02    0.12202E-03   -0.45303E-04    58   0.490E-01    0.210E-01
RMM:   5    -0.265589923845E+02    0.11558E-03   -0.19643E-04    59   0.217E-01    0.104E-01
RMM:   6    -0.265589440480E+02    0.48337E-04   -0.11716E-04    56   0.175E-01    0.300E-02
RMM:   7    -0.265589428310E+02    0.12170E-05   -0.29055E-05    53   0.127E-01    0.184E-02
RMM:   8    -0.265589444069E+02   -0.15759E-05   -0.62381E-06    47   0.507E-02    0.144E-02
RMM:   9    -0.265589453763E+02   -0.96946E-06   -0.15507E-06    33   0.497E-02
 113 F= -.26699078E+02 E0= -.26699078E+02  d E =-.270419E-02  mag=     1.0000
       N       E                     dE             d eps       ncg     rms          rms(c)
DAV:   1    -0.265615664341E+02   -0.26220E-02   -0.21154E-01    72   0.809E+00    0.519E-01
RMM:   2    -0.265601306226E+02    0.14358E-02   -0.42294E-03    58   0.153E+00    0.173E-01
RMM:   3    -0.265597992766E+02    0.33135E-03   -0.12499E-03    60   0.534E-01    0.153E-01
RMM:   4    -0.265597385648E+02    0.60712E-04   -0.16423E-04    58   0.290E-01    0.118E-01
RMM:   5    -0.265596921705E+02    0.46394E-04   -0.90861E-05    60   0.135E-01    0.535E-02
RMM:   6    -0.265596827666E+02    0.94039E-05   -0.33850E-05    53   0.123E-01    0.233E-02
RMM:   7    -0.265596827660E+02    0.54843E-09   -0.79906E-06    44   0.648E-02
 114 F= -.26699431E+02 E0= -.26699431E+02  d E =-.305708E-02  mag=     1.0000
       N       E                     dE             d eps       ncg     rms          rms(c)
DAV:   1    -0.265725363507E+02   -0.12854E-01   -0.53231E-01    72   0.151E+01    0.120E+00
RMM:   2    -0.265639019238E+02    0.86344E-02   -0.15784E-02    49   0.353E+00    0.367E-01
RMM:   3    -0.265627955631E+02    0.11064E-02   -0.93524E-03    61   0.138E+00    0.373E-01
RMM:   4    -0.265626946375E+02    0.10093E-03   -0.41458E-04    59   0.505E-01    0.331E-01
RMM:   5    -0.265626393103E+02    0.55327E-04   -0.10969E-04    62   0.146E-01    0.288E-01
RMM:   6    -0.265624761232E+02    0.16319E-03   -0.20314E-04    54   0.165E-01    0.123E-01
RMM:   7    -0.265624156591E+02    0.60464E-04   -0.11594E-04    58   0.190E-01    0.121E-01
RMM:   8    -0.265624130290E+02    0.26301E-05   -0.31319E-05    55   0.964E-02    0.697E-02
RMM:   9    -0.265624131414E+02   -0.11238E-06   -0.64795E-06    41   0.510E-02
 115 F= -.26701385E+02 E0= -.26701385E+02  d E =-.195389E-02  mag=     1.0000
       N       E                     dE             d eps       ncg     rms          rms(c)
DAV:   1    -0.265706035913E+02   -0.81906E-02   -0.37940E-01    72   0.126E+01    0.101E+00
RMM:   2    -0.265644645813E+02    0.61390E-02   -0.11138E-02    49   0.296E+00    0.307E-01
RMM:   3    -0.265636651129E+02    0.79947E-03   -0.66468E-03    61   0.117E+00    0.314E-01
RMM:   4    -0.265635928931E+02    0.72220E-04   -0.30016E-04    59   0.434E-01    0.280E-01
RMM:   5    -0.265635541378E+02    0.38755E-04   -0.79444E-05    61   0.122E-01    0.244E-01
RMM:   6    -0.265634393351E+02    0.11480E-03   -0.14218E-04    54   0.138E-01    0.104E-01
RMM:   7    -0.265633946662E+02    0.44669E-04   -0.87719E-05    58   0.168E-01    0.109E-01
RMM:   8    -0.265633924965E+02    0.21697E-05   -0.16909E-05    51   0.821E-02    0.652E-02
RMM:   9    -0.265633927774E+02   -0.28086E-06   -0.86704E-06    44   0.614E-02
 116 F= -.26701727E+02 E0= -.26701727E+02  d E =-.229615E-02  mag=     1.0000
       N       E                     dE             d eps       ncg     rms          rms(c)
