       N       E                     dE             d eps       ncg     rms          rms(c)
DAV:   1     0.117541816046E+03    0.11754E+03   -0.22445E+03    96   0.429E+02
DAV:   2     0.348221486197E+01   -0.11406E+03   -0.11392E+03    96   0.150E+02
DAV:   3    -0.152198446636E+02   -0.18702E+02   -0.18672E+02    96   0.780E+01
DAV:   4    -0.175809655629E+02   -0.23611E+01   -0.23552E+01    72   0.145E+01
DAV:   5    -0.176343118289E+02   -0.53346E-01   -0.51668E-01    60   0.265E+00    0.209E+01
RMM:   6    -0.172923497492E+02    0.34196E+00   -0.22808E+00    50   0.119E+01    0.193E+01
RMM:   7    -0.167437294388E+02    0.54862E+00   -0.65570E-01    48   0.712E+00    0.108E+01
RMM:   8    -0.133224892644E+02    0.34212E+01   -0.42064E+00    48   0.148E+01    0.509E+00
RMM:   9    -0.147775795102E+02   -0.14551E+01   -0.74409E-01    48   0.751E+00    0.316E+00
RMM:  10    -0.151806729033E+02   -0.40309E+00   -0.12321E-01    48   0.262E+00    0.543E+00
RMM:  11    -0.151632610176E+02    0.17412E-01   -0.11381E-02    48   0.119E+00    0.535E+00
RMM:  12    -0.151685475482E+02   -0.52865E-02   -0.31708E-03    52   0.335E-01    0.531E+00
RMM:  13    -0.152056383270E+02   -0.37091E-01   -0.44293E-03    48   0.436E-01    0.566E+00
RMM:  14    -0.152183358978E+02   -0.12698E-01   -0.42451E-04    51   0.137E-01    0.571E+00
RMM:  15    -0.157503276181E+02   -0.53199E+00   -0.36339E-01    48   0.386E+00    0.592E+00
RMM:  16    -0.160435039184E+02   -0.29318E+00   -0.17418E-01    48   0.286E+00    0.435E+00
RMM:  17    -0.161264543452E+02   -0.82950E-01   -0.15537E-01    48   0.270E+00    0.411E+00
RMM:  18    -0.161568080118E+02   -0.30354E-01   -0.10286E-01    49   0.235E+00    0.445E+00
RMM:  19    -0.163184362728E+02   -0.16163E+00   -0.13471E-01    48   0.228E+00    0.471E+00
RMM:  20    -0.162917129158E+02    0.26723E-01   -0.14472E-01    48   0.230E+00    0.359E+00
RMM:  21    -0.164720201371E+02   -0.18031E+00   -0.20252E-01    48   0.241E+00    0.287E+00
RMM:  22    -0.163292855517E+02    0.14273E+00   -0.44406E-01    49   0.373E+00    0.118E+00
RMM:  23    -0.165596073141E+02   -0.23032E+00   -0.10022E-01    48   0.169E+00    0.961E-01
RMM:  24    -0.166886755817E+02   -0.12907E+00   -0.18837E-01    49   0.172E+00    0.442E-01
RMM:  25    -0.167674884791E+02   -0.78813E-01   -0.55799E-02    48   0.108E+00    0.588E-01
RMM:  26    -0.168194946040E+02   -0.52006E-01   -0.20911E-02    48   0.705E-01    0.399E-01
RMM:  27    -0.168603572522E+02   -0.40863E-01   -0.32221E-03    51   0.333E-01    0.245E-01
RMM:  28    -0.169062919036E+02   -0.45935E-01   -0.27642E-03    48   0.319E-01    0.325E-01
RMM:  29    -0.169629804512E+02   -0.56689E-01   -0.35883E-03    48   0.338E-01    0.304E-01
RMM:  30    -0.169931987877E+02   -0.30218E-01   -0.27691E-03    51   0.303E-01    0.848E-02
RMM:  31    -0.169991121875E+02   -0.59134E-02   -0.33145E-04    50   0.155E-01    0.104E-01
RMM:  32    -0.170026019997E+02   -0.34898E-02   -0.58969E-05    48   0.576E-02    0.961E-02
RMM:  33    -0.170064969169E+02   -0.38949E-02   -0.30534E-04    48   0.123E-01    0.666E-02
RMM:  34    -0.170136985388E+02   -0.72016E-02   -0.17906E-04    49   0.941E-02    0.686E-02
RMM:  35    -0.170236738187E+02   -0.99753E-02   -0.28840E-04    48   0.112E-01    0.532E-02
RMM:  36    -0.170293578817E+02   -0.56841E-02   -0.23035E-04    49   0.109E-01    0.573E-02
RMM:  37    -0.170323538680E+02   -0.29960E-02   -0.73623E-05    50   0.647E-02    0.339E-02
RMM:  38    -0.170336008210E+02   -0.12470E-02   -0.33767E-05    47   0.408E-02    0.180E-02
RMM:  39    -0.170346373628E+02   -0.10365E-02   -0.12526E-05    42   0.277E-02    0.964E-03
RMM:  40    -0.170354608831E+02   -0.82352E-03   -0.15045E-05    44   0.268E-02    0.628E-03
RMM:  41    -0.170362221694E+02   -0.76129E-03   -0.21451E-05    46   0.311E-02    0.464E-03
RMM:  42    -0.170368059564E+02   -0.58379E-03   -0.78261E-06    41   0.213E-02    0.564E-03
RMM:  43    -0.170370778210E+02   -0.27186E-03   -0.93681E-07    33   0.106E-02    0.475E-03
RMM:  44    -0.170372026295E+02   -0.12481E-03   -0.12544E-06    33   0.877E-03    0.371E-03
RMM:  45    -0.170372730069E+02   -0.70377E-04   -0.80998E-07    32   0.718E-03    0.275E-03
RMM:  46    -0.170373320112E+02   -0.59004E-04   -0.47618E-07    31   0.692E-03    0.258E-03
RMM:  47    -0.170373997485E+02   -0.67737E-04   -0.39582E-07    31   0.621E-03    0.150E-03
RMM:  48    -0.170374458080E+02   -0.46059E-04   -0.26794E-07    30   0.522E-03    0.669E-04
RMM:  49    -0.170374836449E+02   -0.37837E-04   -0.12200E-07    30   0.450E-03    0.968E-04
RMM:  50    -0.170375061259E+02   -0.22481E-04   -0.50256E-08    23   0.238E-03    0.383E-04
RMM:  51    -0.170375180667E+02   -0.11941E-04   -0.37270E-08    25   0.258E-03    0.483E-04
RMM:  52    -0.170375286450E+02   -0.10578E-04   -0.25982E-08    23   0.203E-03    0.285E-04
RMM:  53    -0.170375327948E+02   -0.41497E-05   -0.13837E-08    21   0.187E-03    0.366E-04
RMM:  54    -0.170375357430E+02   -0.29483E-05   -0.57908E-09    19   0.163E-03    0.255E-04
RMM:  55    -0.170375394642E+02   -0.37211E-05   -0.71154E-09    20   0.169E-03    0.226E-04
RMM:  56    -0.170375400347E+02   -0.57054E-06   -0.80843E-10    16   0.133E-03
   1 F= -.17046586E+02 E0= -.17046586E+02  d E =-.170466E+02  mag=     1.0000
       N       E                     dE             d eps       ncg     rms          rms(c)
DAV:   1    -0.153870584520E+02    0.16505E+01   -0.40507E+02    48   0.251E+02    0.105E+01
RMM:   2    -0.159118518561E+02   -0.52479E+00   -0.20969E+01    48   0.405E+01    0.901E+00
RMM:   3    -0.160164174863E+02   -0.10457E+00   -0.18408E+00    50   0.156E+01    0.669E+00
RMM:   4    -0.160802644805E+02   -0.63847E-01   -0.60367E-01    50   0.856E+00    0.291E+00
RMM:   5    -0.161714552018E+02   -0.91191E-01   -0.13872E-01    50   0.328E+00    0.110E+00
RMM:   6    -0.162258544780E+02   -0.54399E-01   -0.36960E-02    49   0.170E+00    0.496E-01
RMM:   7    -0.162493471786E+02   -0.23493E-01   -0.66291E-03    50   0.797E-01    0.250E-01
RMM:   8    -0.162641071393E+02   -0.14760E-01   -0.25363E-03    49   0.382E-01    0.138E-01
RMM:   9    -0.162714495448E+02   -0.73424E-02   -0.79272E-04    50   0.210E-01    0.748E-02
RMM:  10    -0.162771620793E+02   -0.57125E-02   -0.53234E-04    50   0.149E-01    0.423E-02
RMM:  11    -0.162802198346E+02   -0.30578E-02   -0.18725E-04    49   0.948E-02    0.318E-02
RMM:  12    -0.162840902809E+02   -0.38704E-02   -0.20391E-04    48   0.927E-02    0.194E-02
RMM:  13    -0.162873296779E+02   -0.32394E-02   -0.20597E-04    48   0.818E-02    0.126E-02
RMM:  14    -0.162898523026E+02   -0.25226E-02   -0.24867E-04    48   0.823E-02    0.777E-03
RMM:  15    -0.162909996665E+02   -0.11474E-02   -0.12006E-04    48   0.626E-02    0.695E-03
RMM:  16    -0.162915384652E+02   -0.53880E-03   -0.23261E-05    45   0.256E-02    0.348E-03
RMM:  17    -0.162919799314E+02   -0.44147E-03   -0.12638E-05    39   0.204E-02    0.225E-03
RMM:  18    -0.162922023007E+02   -0.22237E-03   -0.81374E-06    39   0.157E-02    0.175E-03
RMM:  19    -0.162923012968E+02   -0.98996E-04   -0.20988E-06    34   0.943E-03    0.142E-03
RMM:  20    -0.162924612036E+02   -0.15991E-03   -0.46288E-06    38   0.104E-02    0.106E-03
RMM:  21    -0.162925055635E+02   -0.44360E-04   -0.13119E-06    33   0.734E-03    0.642E-04
RMM:  22    -0.162925259167E+02   -0.20353E-04   -0.40338E-07    28   0.529E-03    0.472E-04
RMM:  23    -0.162925418631E+02   -0.15946E-04   -0.30724E-07    30   0.463E-03    0.336E-04
RMM:  24    -0.162925696516E+02   -0.27788E-04   -0.36745E-07    28   0.410E-03    0.212E-04
RMM:  25    -0.162925874802E+02   -0.17829E-04   -0.32744E-07    25   0.425E-03    0.278E-04
RMM:  26    -0.162925899281E+02   -0.24479E-05   -0.14736E-07    22   0.383E-03    0.215E-04
RMM:  27    -0.162925962407E+02   -0.63126E-05   -0.11877E-07    21   0.267E-03    0.158E-04
RMM:  28    -0.162925993931E+02   -0.31525E-05   -0.62317E-08    20   0.267E-03    0.109E-04
RMM:  29    -0.162926007074E+02   -0.13142E-05   -0.35481E-08    19   0.209E-03    0.498E-05
RMM:  30    -0.162926015213E+02   -0.81392E-06   -0.19314E-08    17   0.189E-03
   2 F= -.16304920E+02 E0= -.16304920E+02  d E =0.741666E+00  mag=     1.0000
       N       E                     dE             d eps       ncg     rms          rms(c)
DAV:   1    -0.167852709617E+02   -0.49267E+00   -0.22280E+02    48   0.196E+02    0.656E+00
RMM:   2    -0.174613740673E+02   -0.67610E+00   -0.93557E+00    48   0.282E+01    0.572E+00
RMM:   3    -0.174523414321E+02    0.90326E-02   -0.59828E-01    50   0.100E+01    0.436E+00
RMM:   4    -0.172813564476E+02    0.17098E+00   -0.44889E-01    49   0.626E+00    0.253E+00
RMM:   5    -0.172690075770E+02    0.12349E-01   -0.20140E-01    48   0.442E+00    0.941E-01
RMM:   6    -0.174727552565E+02   -0.20375E+00   -0.24534E-01    49   0.247E+00    0.452E-01
RMM:   7    -0.175387147844E+02   -0.65960E-01   -0.87627E-02    48   0.143E+00    0.313E-01
RMM:   8    -0.175714531505E+02   -0.32738E-01   -0.30411E-02    49   0.856E-01    0.231E-01
RMM:   9    -0.175904463429E+02   -0.18993E-01   -0.15033E-02    48   0.692E-01    0.138E-01
RMM:  10    -0.176011978999E+02   -0.10752E-01   -0.30704E-03    48   0.310E-01    0.672E-02
RMM:  11    -0.176038592849E+02   -0.26614E-02   -0.71755E-04    50   0.166E-01    0.697E-02
RMM:  12    -0.176058615120E+02   -0.20022E-02   -0.14481E-04    53   0.760E-02    0.382E-02
RMM:  13    -0.176085240927E+02   -0.26626E-02   -0.83210E-05    48   0.531E-02    0.197E-02
RMM:  14    -0.176106339615E+02   -0.21099E-02   -0.97165E-05    45   0.479E-02    0.139E-02
RMM:  15    -0.176123915839E+02   -0.17576E-02   -0.89941E-05    45   0.460E-02    0.680E-03
RMM:  16    -0.176138752529E+02   -0.14837E-02   -0.74889E-05    45   0.323E-02    0.579E-03
RMM:  17    -0.176151631340E+02   -0.12879E-02   -0.10395E-04    45   0.338E-02    0.555E-03
RMM:  18    -0.176155479080E+02   -0.38477E-03   -0.38665E-05    43   0.230E-02    0.284E-03
RMM:  19    -0.176157406513E+02   -0.19274E-03   -0.86648E-06    40   0.139E-02    0.212E-03
RMM:  20    -0.176159052180E+02   -0.16457E-03   -0.43870E-06    36   0.120E-02    0.137E-03
RMM:  21    -0.176159893140E+02   -0.84096E-04   -0.26452E-06    35   0.825E-03    0.116E-03
RMM:  22    -0.176160529203E+02   -0.63606E-04   -0.12347E-06    34   0.706E-03    0.105E-03
RMM:  23    -0.176160886070E+02   -0.35687E-04   -0.81519E-07    33   0.584E-03    0.519E-04
RMM:  24    -0.176161096134E+02   -0.21006E-04   -0.53222E-07    28   0.425E-03    0.425E-04
RMM:  25    -0.176161240853E+02   -0.14472E-04   -0.21794E-07    25   0.406E-03    0.389E-04
RMM:  26    -0.176161287684E+02   -0.46832E-05   -0.11603E-07    21   0.327E-03    0.247E-04
RMM:  27    -0.176161356548E+02   -0.68864E-05   -0.96905E-08    22   0.269E-03    0.179E-04
RMM:  28    -0.176161379346E+02   -0.22798E-05   -0.47210E-08    21   0.249E-03    0.118E-04
RMM:  29    -0.176161421112E+02   -0.41766E-05   -0.32720E-08    19   0.188E-03    0.618E-05
RMM:  30    -0.176161436377E+02   -0.15265E-05   -0.26238E-08    18   0.193E-03    0.657E-05
RMM:  31    -0.176161442266E+02   -0.58896E-06   -0.10004E-08    17   0.151E-03
   3 F= -.17625604E+02 E0= -.17625604E+02  d E =-.579018E+00  mag=     1.0000
       N       E                     dE             d eps       ncg     rms          rms(c)
DAV:   1    -0.176198502284E+02   -0.37066E-02   -0.20839E-01    48   0.556E+00    0.199E-01
RMM:   2    -0.176197908345E+02    0.59394E-04   -0.67481E-03    48   0.904E-01    0.175E-01
RMM:   3    -0.176200139459E+02   -0.22311E-03   -0.62755E-04    51   0.360E-01    0.129E-01
RMM:   4    -0.176199168529E+02    0.97093E-04   -0.20345E-04    53   0.136E-01    0.903E-02
RMM:   5    -0.176199094439E+02    0.74090E-05   -0.10246E-04    48   0.888E-02    0.322E-02
RMM:   6    -0.176198880486E+02    0.21395E-04   -0.30886E-05    50   0.515E-02    0.119E-02
RMM:   7    -0.176199996805E+02   -0.11163E-03   -0.83291E-06    42   0.213E-02    0.665E-03
RMM:   8    -0.176200827565E+02   -0.83076E-04   -0.38393E-06    38   0.155E-02    0.424E-03
RMM:   9    -0.176201371912E+02   -0.54435E-04   -0.15189E-06    35   0.877E-03    0.246E-03
RMM:  10    -0.176201817685E+02   -0.44577E-04   -0.66328E-07    31   0.687E-03    0.142E-03
RMM:  11    -0.176202004447E+02   -0.18676E-04   -0.31377E-07    30   0.559E-03    0.851E-04
RMM:  12    -0.176202229001E+02   -0.22455E-04   -0.37160E-07    30   0.443E-03    0.503E-04
RMM:  13    -0.176202355254E+02   -0.12625E-04   -0.21060E-07    26   0.445E-03    0.327E-04
RMM:  14    -0.176202588276E+02   -0.23302E-04   -0.41729E-07    23   0.383E-03    0.272E-04
RMM:  15    -0.176202765422E+02   -0.17715E-04   -0.43674E-07    26   0.456E-03    0.304E-04
RMM:  16    -0.176202829439E+02   -0.64017E-05   -0.23772E-07    26   0.465E-03    0.196E-04
RMM:  17    -0.176202891719E+02   -0.62280E-05   -0.23381E-07    23   0.362E-03    0.178E-04
RMM:  18    -0.176202929397E+02   -0.37678E-05   -0.15469E-07    21   0.371E-03    0.107E-04
RMM:  19    -0.176202957640E+02   -0.28243E-05   -0.13429E-07    22   0.304E-03    0.151E-04
RMM:  20    -0.176202970403E+02   -0.12762E-05   -0.79694E-08    21   0.305E-03    0.660E-05
RMM:  21    -0.176202977229E+02   -0.68261E-06   -0.58286E-08    21   0.227E-03
   4 F= -.17629714E+02 E0= -.17629714E+02  d E =-.583128E+00  mag=     1.0000
       N       E                     dE             d eps       ncg     rms          rms(c)
DAV:   1    -0.176208229359E+02   -0.52590E-03   -0.74016E-02    48   0.331E+00    0.119E-01
RMM:   2    -0.176207436143E+02    0.79322E-04   -0.24054E-03    48   0.540E-01    0.105E-01
RMM:   3    -0.176208546083E+02   -0.11099E-03   -0.22267E-04    51   0.214E-01    0.776E-02
RMM:   4    -0.176208043426E+02    0.50266E-04   -0.71346E-05    53   0.807E-02    0.547E-02
RMM:   5    -0.176208168214E+02   -0.12479E-04   -0.37956E-05    49   0.531E-02    0.192E-02
RMM:   6    -0.176207967780E+02    0.20043E-04   -0.10516E-05    48   0.299E-02    0.717E-03
RMM:   7    -0.176208419714E+02   -0.45193E-04   -0.30195E-06    39   0.132E-02    0.372E-03
RMM:   8    -0.176208784283E+02   -0.36457E-04   -0.13324E-06    33   0.105E-02    0.260E-03
RMM:   9    -0.176209036757E+02   -0.25247E-04   -0.55130E-07    31   0.655E-03    0.150E-03
RMM:  10    -0.176209246764E+02   -0.21001E-04   -0.36587E-07    30   0.552E-03    0.903E-04
RMM:  11    -0.176209334406E+02   -0.87642E-05   -0.18591E-07    29   0.461E-03    0.559E-04
RMM:  12    -0.176209439025E+02   -0.10462E-04   -0.18839E-07    25   0.335E-03    0.302E-04
RMM:  13    -0.176209501228E+02   -0.62203E-05   -0.10579E-07    24   0.344E-03    0.206E-04
RMM:  14    -0.176209607198E+02   -0.10597E-04   -0.17496E-07    24   0.286E-03    0.168E-04
RMM:  15    -0.176209694064E+02   -0.86865E-05   -0.16469E-07    24   0.335E-03    0.187E-04
RMM:  16    -0.176209719942E+02   -0.25878E-05   -0.87212E-08    22   0.313E-03    0.114E-04
RMM:  17    -0.176209755328E+02   -0.35386E-05   -0.84378E-08    20   0.257E-03    0.109E-04
RMM:  18    -0.176209781886E+02   -0.26558E-05   -0.68427E-08    20   0.270E-03    0.811E-05
RMM:  19    -0.176209799670E+02   -0.17784E-05   -0.80544E-08    24   0.261E-03    0.986E-05
RMM:  20    -0.176209801660E+02   -0.19895E-06   -0.31589E-08    20   0.237E-03
   5 F= -.17630372E+02 E0= -.17630372E+02  d E =-.583786E+00  mag=     1.0000
       N       E                     dE             d eps       ncg     rms          rms(c)
DAV:   1    -0.177000284962E+02   -0.79049E-01   -0.33770E+01    48   0.740E+01    0.339E+00
RMM:   2    -0.176675241591E+02    0.32504E-01   -0.78176E-01    48   0.102E+01    0.173E+00
RMM:   3    -0.176292640333E+02    0.38260E-01   -0.66022E-02    49   0.325E+00    0.784E-01
RMM:   4    -0.176843864221E+02   -0.55122E-01   -0.27169E-02    48   0.130E+00    0.321E-01
RMM:   5    -0.177291027192E+02   -0.44716E-01   -0.69823E-03    50   0.693E-01    0.177E-01
RMM:   6    -0.177444833584E+02   -0.15381E-01   -0.16514E-03    49   0.285E-01    0.101E-01
RMM:   7    -0.177491116229E+02   -0.46283E-02   -0.53574E-04    49   0.168E-01    0.529E-02
RMM:   8    -0.177532345539E+02   -0.41229E-02   -0.14061E-04    50   0.939E-02    0.244E-02
RMM:   9    -0.177565148375E+02   -0.32803E-02   -0.52667E-05    48   0.449E-02    0.127E-02
RMM:  10    -0.177591161812E+02   -0.26013E-02   -0.25372E-05    45   0.284E-02    0.776E-03
RMM:  11    -0.177615740324E+02   -0.24579E-02   -0.24187E-05    47   0.227E-02    0.590E-03
RMM:  12    -0.177645367507E+02   -0.29627E-02   -0.37544E-05    46   0.255E-02    0.415E-03
RMM:  13    -0.177660234212E+02   -0.14867E-02   -0.21681E-05    44   0.196E-02    0.298E-03
RMM:  14    -0.177669345274E+02   -0.91111E-03   -0.16864E-05    43   0.162E-02    0.187E-03
RMM:  15    -0.177672858669E+02   -0.35134E-03   -0.41933E-06    39   0.110E-02    0.129E-03
RMM:  16    -0.177675517760E+02   -0.26591E-03   -0.15953E-06    36   0.762E-03    0.836E-04
RMM:  17    -0.177677507214E+02   -0.19895E-03   -0.12665E-06    32   0.679E-03    0.586E-04
RMM:  18    -0.177678348832E+02   -0.84162E-04   -0.55316E-07    32   0.603E-03    0.480E-04
RMM:  19    -0.177679003275E+02   -0.65444E-04   -0.44847E-07    30   0.498E-03    0.287E-04
RMM:  20    -0.177679281133E+02   -0.27786E-04   -0.22700E-07    28   0.446E-03    0.208E-04
RMM:  21    -0.177679482848E+02   -0.20172E-04   -0.14107E-07    21   0.329E-03    0.130E-04
RMM:  22    -0.177679658871E+02   -0.17602E-04   -0.11331E-07    22   0.314E-03    0.138E-04
RMM:  23    -0.177679749240E+02   -0.90369E-05   -0.64494E-08    21   0.270E-03    0.758E-05
RMM:  24    -0.177679786373E+02   -0.37132E-05   -0.33656E-08    20   0.230E-03    0.515E-05
RMM:  25    -0.177679811303E+02   -0.24930E-05   -0.17026E-08    19   0.193E-03    0.519E-05
RMM:  26    -0.177679826433E+02   -0.15130E-05   -0.96762E-09    19   0.173E-03    0.180E-05
RMM:  27    -0.177679835295E+02   -0.88620E-06   -0.58048E-09    18   0.159E-03
   6 F= -.17777239E+02 E0= -.17777239E+02  d E =-.146867E+00  mag=     1.0000
       N       E                     dE             d eps       ncg     rms          rms(c)
DAV:   1    -0.176435744022E+02    0.12441E+00   -0.84131E+01    48   0.117E+02    0.469E+00
RMM:   2    -0.176961854327E+02   -0.52611E-01   -0.19949E+00    48   0.163E+01    0.227E+00
RMM:   3    -0.176257558040E+02    0.70430E-01   -0.16982E-01    51   0.481E+00    0.105E+00
RMM:   4    -0.177091531041E+02   -0.83397E-01   -0.36481E-02    48   0.168E+00    0.441E-01
RMM:   5    -0.177863920324E+02   -0.77239E-01   -0.12635E-02    51   0.855E-01    0.237E-01
RMM:   6    -0.178181197565E+02   -0.31728E-01   -0.19493E-03    52   0.294E-01    0.112E-01
RMM:   7    -0.178371149004E+02   -0.18995E-01   -0.57427E-04    50   0.165E-01    0.492E-02
RMM:   8    -0.178416404087E+02   -0.45255E-02   -0.15731E-04    51   0.858E-02    0.300E-02
RMM:   9    -0.178478016036E+02   -0.61612E-02   -0.81874E-05    47   0.526E-02    0.177E-02
RMM:  10    -0.178544812110E+02   -0.66796E-02   -0.84226E-05    46   0.403E-02    0.118E-02
RMM:  11    -0.178596523536E+02   -0.51711E-02   -0.49356E-05    45   0.313E-02    0.854E-03
RMM:  12    -0.178663430839E+02   -0.66907E-02   -0.87577E-05    46   0.339E-02    0.542E-03
RMM:  13    -0.178693457200E+02   -0.30026E-02   -0.38348E-05    43   0.251E-02    0.363E-03
RMM:  14    -0.178705415016E+02   -0.11958E-02   -0.14532E-05    43   0.163E-02    0.232E-03
RMM:  15    -0.178714849073E+02   -0.94341E-03   -0.88894E-06    41   0.136E-02    0.173E-03
RMM:  16    -0.178719613723E+02   -0.47646E-03   -0.29826E-06    37   0.103E-02    0.105E-03
RMM:  17    -0.178722198798E+02   -0.25851E-03   -0.17729E-06    36   0.770E-03    0.754E-04
RMM:  18    -0.178723515974E+02   -0.13172E-03   -0.62660E-07    32   0.600E-03    0.589E-04
RMM:  19    -0.178724727352E+02   -0.12114E-03   -0.52314E-07    30   0.555E-03    0.456E-04
RMM:  20    -0.178725256160E+02   -0.52881E-04   -0.28011E-07    28   0.464E-03    0.252E-04
RMM:  21    -0.178725683155E+02   -0.42699E-04   -0.16899E-07    23   0.378E-03    0.198E-04
RMM:  22    -0.178725908896E+02   -0.22574E-04   -0.10675E-07    24   0.322E-03    0.122E-04
RMM:  23    -0.178726050292E+02   -0.14140E-04   -0.60129E-08    23   0.263E-03    0.102E-04
RMM:  24    -0.178726147149E+02   -0.96856E-05   -0.26970E-08    19   0.217E-03    0.709E-05
RMM:  25    -0.178726201800E+02   -0.54651E-05   -0.22735E-08    21   0.195E-03    0.551E-05
RMM:  26    -0.178726219405E+02   -0.17604E-05   -0.78385E-09    18   0.172E-03    0.400E-05
RMM:  27    -0.178726227536E+02   -0.81316E-06   -0.38927E-09    18   0.156E-03
   7 F= -.17881708E+02 E0= -.17881708E+02  d E =-.251336E+00  mag=     1.0000
       N       E                     dE             d eps       ncg     rms          rms(c)
DAV:   1    -0.160897112591E+02    0.17829E+01   -0.33813E+02    48   0.241E+02    0.813E+00
RMM:   2    -0.175269848360E+02   -0.14373E+01   -0.11110E+01    48   0.342E+01    0.467E+00
RMM:   3    -0.174918111929E+02    0.35174E-01   -0.80935E-01    51   0.912E+00    0.246E+00
RMM:   4    -0.176389321757E+02   -0.14712E+00   -0.16352E-01    50   0.331E+00    0.101E+00
RMM:   5    -0.177585105060E+02   -0.11958E+00   -0.42803E-02    50   0.168E+00    0.526E-01
RMM:   6    -0.178044165626E+02   -0.45906E-01   -0.14088E-02    52   0.725E-01    0.304E-01
RMM:   7    -0.178499733966E+02   -0.45557E-01   -0.11987E-02    50   0.532E-01    0.119E-01
RMM:   8    -0.178678527016E+02   -0.17879E-01   -0.47930E-03    52   0.317E-01    0.768E-02
RMM:   9    -0.178821223931E+02   -0.14270E-01   -0.20398E-03    51   0.188E-01    0.529E-02
RMM:  10    -0.179052320720E+02   -0.23110E-01   -0.22229E-03    50   0.176E-01    0.355E-02
RMM:  11    -0.179174651780E+02   -0.12233E-01   -0.84289E-04    50   0.129E-01    0.248E-02
RMM:  12    -0.179281754150E+02   -0.10710E-01   -0.55451E-04    48   0.840E-02    0.187E-02
RMM:  13    -0.179409455809E+02   -0.12770E-01   -0.71365E-04    49   0.106E-01    0.950E-03
RMM:  14    -0.179444776905E+02   -0.35321E-02   -0.13049E-04    48   0.523E-02    0.720E-03
RMM:  15    -0.179465578704E+02   -0.20802E-02   -0.42893E-05    43   0.263E-02    0.540E-03
RMM:  16    -0.179499953047E+02   -0.34374E-02   -0.45461E-05    43   0.297E-02    0.348E-03
RMM:  17    -0.179513261044E+02   -0.13308E-02   -0.14063E-05    42   0.192E-02    0.207E-03
RMM:  18    -0.179519635099E+02   -0.63741E-03   -0.25282E-06    36   0.950E-03    0.123E-03
RMM:  19    -0.179523088225E+02   -0.34531E-03   -0.13878E-06    35   0.678E-03    0.916E-04
RMM:  20    -0.179525951325E+02   -0.28631E-03   -0.99806E-07    35   0.615E-03    0.604E-04
RMM:  21    -0.179527228221E+02   -0.12769E-03   -0.39362E-07    32   0.427E-03    0.407E-04
RMM:  22    -0.179527796895E+02   -0.56867E-04   -0.18532E-07    27   0.358E-03    0.307E-04
RMM:  23    -0.179528460072E+02   -0.66318E-04   -0.14629E-07    25   0.293E-03    0.199E-04
RMM:  24    -0.179528701637E+02   -0.24157E-04   -0.78582E-08    24   0.271E-03    0.127E-04
RMM:  25    -0.179528851759E+02   -0.15012E-04   -0.31835E-08    21   0.217E-03    0.101E-04
RMM:  26    -0.179528947452E+02   -0.95694E-05   -0.28203E-08    20   0.200E-03    0.676E-05
RMM:  27    -0.179528984133E+02   -0.36681E-05   -0.10277E-08    19   0.180E-03    0.432E-05
RMM:  28    -0.179529000286E+02   -0.16153E-05   -0.48694E-09    18   0.162E-03    0.438E-05
RMM:  29    -0.179529014353E+02   -0.14067E-05   -0.35374E-09    18   0.158E-03    0.316E-05
RMM:  30    -0.179529020152E+02   -0.57988E-06   -0.24104E-09    18   0.154E-03
   8 F= -.17961994E+02 E0= -.17961994E+02  d E =-.331622E+00  mag=     1.0000
       N       E                     dE             d eps       ncg     rms          rms(c)
DAV:   1    -0.176672997782E+02    0.28560E+00   -0.12993E+02    48   0.149E+02    0.559E+00
RMM:   2    -0.178186737997E+02   -0.15137E+00   -0.28715E+00    48   0.182E+01    0.336E+00
RMM:   3    -0.177957345306E+02    0.22939E-01   -0.25818E-01    50   0.547E+00    0.176E+00
RMM:   4    -0.177631236568E+02    0.32611E-01   -0.66147E-02    49   0.209E+00    0.631E-01
RMM:   5    -0.177979740020E+02   -0.34850E-01   -0.16253E-02    51   0.107E+00    0.317E-01
RMM:   6    -0.178402714705E+02   -0.42297E-01   -0.81288E-03    49   0.546E-01    0.155E-01
RMM:   7    -0.178671061717E+02   -0.26835E-01   -0.34314E-03    49   0.389E-01    0.844E-02
RMM:   8    -0.178885351687E+02   -0.21429E-01   -0.21810E-03    50   0.220E-01    0.431E-02
RMM:   9    -0.178991299386E+02   -0.10595E-01   -0.49097E-04    52   0.131E-01    0.254E-02
RMM:  10    -0.179099002905E+02   -0.10770E-01   -0.25726E-04    48   0.805E-02    0.158E-02
RMM:  11    -0.179168394411E+02   -0.69392E-02   -0.13910E-04    46   0.567E-02    0.112E-02
RMM:  12    -0.179223509328E+02   -0.55115E-02   -0.63480E-05    45   0.388E-02    0.823E-03
RMM:  13    -0.179293807662E+02   -0.70298E-02   -0.10051E-04    44   0.410E-02    0.493E-03
RMM:  14    -0.179317788366E+02   -0.23981E-02   -0.43625E-05    45   0.275E-02    0.305E-03
RMM:  15    -0.179331492840E+02   -0.13704E-02   -0.93411E-06    40   0.147E-02    0.200E-03
RMM:  16    -0.179341583522E+02   -0.10091E-02   -0.25571E-06    38   0.932E-03    0.136E-03
RMM:  17    -0.179344519961E+02   -0.29364E-03   -0.56456E-07    33   0.626E-03    0.907E-04
RMM:  18    -0.179347009022E+02   -0.24891E-03   -0.54358E-07    33   0.586E-03    0.746E-04
RMM:  19    -0.179348026292E+02   -0.10173E-03   -0.28490E-07    31   0.492E-03    0.498E-04
RMM:  20    -0.179349273897E+02   -0.12476E-03   -0.27008E-07    30   0.426E-03    0.298E-04
RMM:  21    -0.179349885680E+02   -0.61178E-04   -0.16008E-07    29   0.386E-03    0.271E-04
RMM:  22    -0.179350110417E+02   -0.22474E-04   -0.67016E-08    22   0.283E-03    0.162E-04
RMM:  23    -0.179350360582E+02   -0.25016E-04   -0.40861E-08    22   0.245E-03    0.112E-04
RMM:  24    -0.179350525932E+02   -0.16535E-04   -0.31515E-08    22   0.226E-03    0.867E-05
RMM:  25    -0.179350556483E+02   -0.30551E-05   -0.11997E-08    18   0.192E-03    0.516E-05
RMM:  26    -0.179350592634E+02   -0.36151E-05   -0.85944E-09    20   0.168E-03    0.395E-05
RMM:  27    -0.179350619662E+02   -0.27029E-05   -0.29646E-09    17   0.149E-03    0.274E-05
RMM:  28    -0.179350638355E+02   -0.18693E-05    0.00000E+00    15   0.135E-03    0.143E-05
RMM:  29    -0.179350643895E+02   -0.55399E-06    0.00000E+00    15   0.135E-03
   9 F= -.17944078E+02 E0= -.17944078E+02  d E =-.313706E+00  mag=     1.0000
       N       E                     dE             d eps       ncg     rms          rms(c)
DAV:   1    -0.179006731597E+02    0.34391E-01   -0.33522E+01    48   0.752E+01    0.275E+00
RMM:   2    -0.179336924966E+02   -0.33019E-01   -0.72077E-01    49   0.929E+00    0.156E+00
RMM:   3    -0.179065989630E+02    0.27094E-01   -0.71010E-02    52   0.249E+00    0.791E-01
RMM:   4    -0.179117427251E+02   -0.51438E-02   -0.12478E-02    50   0.923E-01    0.303E-01
RMM:   5    -0.179347278668E+02   -0.22985E-01   -0.43055E-03    50   0.527E-01    0.161E-01
RMM:   6    -0.179497318731E+02   -0.15004E-01   -0.21083E-03    51   0.266E-01    0.888E-02
RMM:   7    -0.179588611072E+02   -0.91292E-02   -0.99250E-04    51   0.168E-01    0.402E-02
RMM:   8    -0.179635237802E+02   -0.46627E-02   -0.36144E-04    52   0.967E-02    0.246E-02
RMM:   9    -0.179677016791E+02   -0.41779E-02   -0.19585E-04    48   0.622E-02    0.148E-02
RMM:  10    -0.179727420952E+02   -0.50404E-02   -0.17666E-04    49   0.566E-02    0.906E-03
RMM:  11    -0.179752001769E+02   -0.24581E-02   -0.55199E-05    44   0.350E-02    0.664E-03
RMM:  12    -0.179778690528E+02   -0.26689E-02   -0.47056E-05    44   0.278E-02    0.425E-03
RMM:  13    -0.179802272087E+02   -0.23582E-02   -0.39111E-05    43   0.258E-02    0.272E-03
RMM:  14    -0.179808601689E+02   -0.63296E-03   -0.42437E-06    39   0.163E-02    0.207E-03
RMM:  15    -0.179816474223E+02   -0.78725E-03   -0.33368E-06    37   0.877E-03    0.137E-03
RMM:  16    -0.179823188080E+02   -0.67139E-03   -0.45580E-06    37   0.985E-03    0.882E-04
RMM:  17    -0.179824419580E+02   -0.12315E-03   -0.13101E-06    36   0.745E-03    0.573E-04
RMM:  18    -0.179825171709E+02   -0.75213E-04   -0.50145E-07    33   0.483E-03    0.432E-04
RMM:  19    -0.179825671787E+02   -0.50008E-04   -0.23212E-07    28   0.435E-03    0.326E-04
RMM:  20    -0.179826290268E+02   -0.61848E-04   -0.19676E-07    27   0.362E-03    0.243E-04
RMM:  21    -0.179826648112E+02   -0.35784E-04   -0.11485E-07    22   0.317E-03    0.176E-04
RMM:  22    -0.179826891184E+02   -0.24307E-04   -0.77499E-08    23   0.279E-03    0.153E-04
RMM:  23    -0.179826986137E+02   -0.94954E-05   -0.39407E-08    20   0.245E-03    0.937E-05
RMM:  24    -0.179827042605E+02   -0.56467E-05   -0.20932E-08    20   0.212E-03    0.825E-05
RMM:  25    -0.179827064942E+02   -0.22337E-05   -0.98863E-09    18   0.191E-03    0.302E-05
RMM:  26    -0.179827088999E+02   -0.24057E-05   -0.26444E-09    16   0.168E-03    0.404E-05
RMM:  27    -0.179827100006E+02   -0.11007E-05   -0.30928E-09    17   0.162E-03    0.206E-05
RMM:  28    -0.179827107591E+02   -0.75853E-06   -0.94815E-10    16   0.160E-03
  10 F= -.17991716E+02 E0= -.17991716E+02  d E =-.361344E+00  mag=     1.0000
       N       E                     dE             d eps       ncg     rms          rms(c)
DAV:   1    -0.180009318011E+02   -0.18222E-01   -0.23623E-01    72   0.629E+00    0.215E-01
RMM:   2    -0.180007106007E+02    0.22120E-03   -0.34996E-03    48   0.573E-01    0.136E-01
RMM:   3    -0.180005723405E+02    0.13826E-03   -0.37831E-04    49   0.181E-01    0.749E-02
RMM:   4    -0.180001350640E+02    0.43728E-03   -0.13385E-04    51   0.869E-02    0.255E-02
RMM:   5    -0.180003072908E+02   -0.17223E-03   -0.33928E-05    49   0.428E-02    0.125E-02
RMM:   6    -0.180005367229E+02   -0.22943E-03   -0.21014E-05    45   0.243E-02    0.720E-03
RMM:   7    -0.180007244814E+02   -0.18776E-03   -0.12198E-05    41   0.173E-02    0.426E-03
RMM:   8    -0.180008650848E+02   -0.14060E-03   -0.68045E-06    40   0.145E-02    0.260E-03
RMM:   9    -0.180009635668E+02   -0.98482E-04   -0.32784E-06    38   0.108E-02    0.153E-03
RMM:  10    -0.180010444868E+02   -0.80920E-04   -0.17642E-06    35   0.918E-03    0.998E-04
RMM:  11    -0.180011158909E+02   -0.71404E-04   -0.11112E-06    35   0.773E-03    0.747E-04
RMM:  12    -0.180011569355E+02   -0.41045E-04   -0.52075E-07    32   0.639E-03    0.475E-04
RMM:  13    -0.180012187045E+02   -0.61769E-04   -0.67975E-07    33   0.617E-03    0.405E-04
RMM:  14    -0.180012562450E+02   -0.37540E-04   -0.38832E-07    31   0.624E-03    0.269E-04
RMM:  15    -0.180013019257E+02   -0.45681E-04   -0.45912E-07    31   0.525E-03    0.260E-04
RMM:  16    -0.180013263749E+02   -0.24449E-04   -0.24691E-07    28   0.525E-03    0.144E-04
RMM:  17    -0.180013472621E+02   -0.20887E-04   -0.19471E-07    25   0.354E-03    0.150E-04
RMM:  18    -0.180013536566E+02   -0.63945E-05   -0.10426E-07    22   0.362E-03    0.706E-05
RMM:  19    -0.180013553309E+02   -0.16744E-05   -0.61149E-08    21   0.241E-03    0.116E-04
RMM:  20    -0.180013553222E+02    0.87225E-08   -0.30021E-08    20   0.244E-03
  11 F= -.18010379E+02 E0= -.18010379E+02  d E =-.186631E-01  mag=     1.0000
       N       E                     dE             d eps       ncg     rms          rms(c)
DAV:   1    -0.180525081286E+02   -0.51153E-01   -0.21052E+00    48   0.188E+01    0.651E-01
RMM:   2    -0.180534445431E+02   -0.93641E-03   -0.41286E-02    48   0.211E+00    0.423E-01
RMM:   3    -0.180531231510E+02    0.32139E-03   -0.37557E-03    50   0.627E-01    0.239E-01
RMM:   4    -0.180515538404E+02    0.15693E-02   -0.83159E-04    50   0.244E-01    0.867E-02
RMM:   5    -0.180527253536E+02   -0.11715E-02   -0.33641E-04    50   0.145E-01    0.381E-02
RMM:   6    -0.180539813346E+02   -0.12560E-02   -0.18568E-04    51   0.743E-02    0.198E-02
RMM:   7    -0.180547246435E+02   -0.74331E-03   -0.71620E-05    48   0.460E-02    0.129E-02
RMM:   8    -0.180553553050E+02   -0.63066E-03   -0.47344E-05    47   0.337E-02    0.840E-03
RMM:   9    -0.180557980080E+02   -0.44270E-03   -0.27595E-05    45   0.267E-02    0.511E-03
RMM:  10    -0.180561688588E+02   -0.37085E-03   -0.13540E-05    42   0.197E-02    0.316E-03
RMM:  11    -0.180565083467E+02   -0.33949E-03   -0.87688E-06    41   0.171E-02    0.167E-03
RMM:  12    -0.180567431793E+02   -0.23483E-03   -0.49238E-06    40   0.127E-02    0.103E-03
RMM:  13    -0.180569074843E+02   -0.16430E-03   -0.17850E-06    36   0.951E-03    0.817E-04
RMM:  14    -0.180570133303E+02   -0.10585E-03   -0.69057E-07    33   0.706E-03    0.620E-04
RMM:  15    -0.180571391760E+02   -0.12585E-03   -0.62852E-07    33   0.704E-03    0.533E-04
RMM:  16    -0.180572313323E+02   -0.92156E-04   -0.64441E-07    34   0.684E-03    0.320E-04
RMM:  17    -0.180572934904E+02   -0.62158E-04   -0.41558E-07    33   0.537E-03    0.269E-04
RMM:  18    -0.180573206799E+02   -0.27190E-04   -0.29969E-07    33   0.471E-03    0.191E-04
RMM:  19    -0.180573289793E+02   -0.82994E-05   -0.13665E-07    23   0.387E-03    0.144E-04
RMM:  20    -0.180573321157E+02   -0.31364E-05   -0.78809E-08    25   0.302E-03    0.137E-04
RMM:  21    -0.180573360906E+02   -0.39749E-05   -0.44036E-08    22   0.254E-03    0.104E-04
RMM:  22    -0.180573418522E+02   -0.57616E-05   -0.26189E-08    21   0.226E-03    0.653E-05
RMM:  23    -0.180573482924E+02   -0.64401E-05   -0.20282E-08    21   0.206E-03    0.116E-04
RMM:  24    -0.180573489795E+02   -0.68716E-06   -0.86616E-09    17   0.172E-03
  12 F= -.18066433E+02 E0= -.18066433E+02  d E =-.747176E-01  mag=     1.0000
       N       E                     dE             d eps       ncg     rms          rms(c)
DAV:   1    -0.181479808414E+02   -0.90633E-01   -0.83380E+00    48   0.376E+01    0.126E+00
RMM:   2    -0.181549012840E+02   -0.69204E-02   -0.16106E-01    48   0.420E+00    0.834E-01
RMM:   3    -0.181554592844E+02   -0.55800E-03   -0.12201E-02    50   0.126E+00    0.490E-01
RMM:   4    -0.181526826313E+02    0.27767E-02   -0.26554E-03    50   0.461E-01    0.170E-01
RMM:   5    -0.181560549553E+02   -0.33723E-02   -0.97407E-04    50   0.269E-01    0.676E-02
RMM:   6    -0.181589970863E+02   -0.29421E-02   -0.44315E-04    52   0.123E-01    0.347E-02
RMM:   7    -0.181604449353E+02   -0.14478E-02   -0.16060E-04    49   0.701E-02    0.228E-02
RMM:   8    -0.181617406140E+02   -0.12957E-02   -0.12940E-04    46   0.560E-02    0.151E-02
RMM:   9    -0.181624507234E+02   -0.71011E-03   -0.67576E-05    47   0.413E-02    0.110E-02
RMM:  10    -0.181632449914E+02   -0.79427E-03   -0.49151E-05    46   0.356E-02    0.697E-03
RMM:  11    -0.181641075208E+02   -0.86253E-03   -0.50218E-05    46   0.365E-02    0.332E-03
RMM:  12    -0.181645607255E+02   -0.45320E-03   -0.19995E-05    43   0.232E-02    0.240E-03
RMM:  13    -0.181648522795E+02   -0.29155E-03   -0.70756E-06    42   0.142E-02    0.147E-03
RMM:  14    -0.181650773214E+02   -0.22504E-03   -0.19378E-06    35   0.996E-03    0.102E-03
RMM:  15    -0.181652486919E+02   -0.17137E-03   -0.89976E-07    34   0.818E-03    0.776E-04
RMM:  16    -0.181653805320E+02   -0.13184E-03   -0.79588E-07    34   0.695E-03    0.639E-04
RMM:  17    -0.181655070443E+02   -0.12651E-03   -0.45326E-07    33   0.615E-03    0.443E-04
RMM:  18    -0.181655759287E+02   -0.68884E-04   -0.33033E-07    32   0.517E-03    0.296E-04
RMM:  19    -0.181656393274E+02   -0.63399E-04   -0.31594E-07    28   0.486E-03    0.268E-04
RMM:  20    -0.181656623160E+02   -0.22989E-04   -0.19583E-07    28   0.443E-03    0.142E-04
RMM:  21    -0.181656764031E+02   -0.14087E-04   -0.15463E-07    25   0.349E-03    0.133E-04
RMM:  22    -0.181656824041E+02   -0.60010E-05   -0.66318E-08    22   0.323E-03    0.106E-04
RMM:  23    -0.181656876366E+02   -0.52325E-05   -0.34642E-08    20   0.209E-03    0.584E-05
RMM:  24    -0.181656929230E+02   -0.52864E-05   -0.18159E-08    19   0.212E-03    0.802E-05
RMM:  25    -0.181656961401E+02   -0.32171E-05   -0.93312E-09    17   0.165E-03    0.507E-05
RMM:  26    -0.181656975452E+02   -0.14051E-05   -0.48318E-09    17   0.162E-03    0.608E-05
RMM:  27    -0.181656988828E+02   -0.13376E-05    0.00000E+00    12   0.142E-03    0.474E-05
RMM:  28    -0.181656996417E+02   -0.75897E-06    0.00000E+00    12   0.142E-03
  13 F= -.18174935E+02 E0= -.18174935E+02  d E =-.183220E+00  mag=     1.0000
       N       E                     dE             d eps       ncg     rms          rms(c)
DAV:   1    -0.182808691269E+02   -0.11517E+00   -0.32812E+01    48   0.751E+01    0.235E+00
RMM:   2    -0.183190868978E+02   -0.38218E-01   -0.61288E-01    48   0.840E+00    0.152E+00
RMM:   3    -0.183270318856E+02   -0.79450E-02   -0.37483E-02    50   0.251E+00    0.932E-01
RMM:   4    -0.183234910608E+02    0.35408E-02   -0.68329E-03    48   0.863E-01    0.336E-01
RMM:   5    -0.183322719420E+02   -0.87809E-02   -0.21648E-03    48   0.507E-01    0.105E-01
RMM:   6    -0.183375088513E+02   -0.52369E-02   -0.74793E-04    52   0.198E-01    0.568E-02
RMM:   7    -0.183395987337E+02   -0.20899E-02   -0.11953E-04    49   0.934E-02    0.293E-02
RMM:   8    -0.183416443974E+02   -0.20457E-02   -0.10553E-04    48   0.618E-02    0.140E-02
RMM:   9    -0.183424847773E+02   -0.84038E-03   -0.42826E-05    46   0.428E-02    0.111E-02
RMM:  10    -0.183434738334E+02   -0.98906E-03   -0.36905E-05    45   0.321E-02    0.715E-03
RMM:  11    -0.183447266492E+02   -0.12528E-02   -0.53385E-05    45   0.392E-02    0.413E-03
RMM:  12    -0.183453576947E+02   -0.63105E-03   -0.21631E-05    42   0.272E-02    0.242E-03
RMM:  13    -0.183457881577E+02   -0.43046E-03   -0.12988E-05    42   0.190E-02    0.149E-03
RMM:  14    -0.183460331240E+02   -0.24497E-03   -0.30016E-06    37   0.118E-02    0.103E-03
RMM:  15    -0.183461857789E+02   -0.15265E-03   -0.82200E-07    33   0.841E-03    0.757E-04
RMM:  16    -0.183462488226E+02   -0.63044E-04   -0.34824E-07    31   0.627E-03    0.584E-04
RMM:  17    -0.183463713525E+02   -0.12253E-03   -0.35360E-07    32   0.496E-03    0.380E-04
RMM:  18    -0.183464659440E+02   -0.94592E-04   -0.32744E-07    33   0.488E-03    0.361E-04
RMM:  19    -0.183465019708E+02   -0.36027E-04   -0.17108E-07    26   0.422E-03    0.195E-04
RMM:  20    -0.183465408802E+02   -0.38909E-04   -0.26604E-07    29   0.376E-03    0.217E-04
RMM:  21    -0.183465543559E+02   -0.13476E-04   -0.98633E-08    24   0.373E-03    0.105E-04
RMM:  22    -0.183465622135E+02   -0.78576E-05   -0.56329E-08    22   0.232E-03    0.881E-05
RMM:  23    -0.183465655709E+02   -0.33574E-05   -0.25833E-08    20   0.235E-03    0.597E-05
RMM:  24    -0.183465706681E+02   -0.50971E-05   -0.13298E-08    18   0.165E-03    0.424E-05
RMM:  25    -0.183465734461E+02   -0.27780E-05   -0.67214E-09    18   0.170E-03    0.388E-05
RMM:  26    -0.183465750722E+02   -0.16262E-05   -0.17874E-09    15   0.144E-03    0.202E-05
RMM:  27    -0.183465760596E+02   -0.98741E-06    0.00000E+00    12   0.144E-03
  14 F= -.18356318E+02 E0= -.18356318E+02  d E =-.364602E+00  mag=     1.0000
       N       E                     dE             d eps       ncg     rms          rms(c)
DAV:   1    -0.182377657990E+02    0.10881E+00   -0.12870E+02    48   0.150E+02    0.393E+00
RMM:   2    -0.184354398259E+02   -0.19767E+00   -0.24717E+00    48   0.170E+01    0.230E+00
RMM:   3    -0.184818198150E+02   -0.46380E-01   -0.13281E-01    48   0.497E+00    0.149E+00
RMM:   4    -0.184813793359E+02    0.44048E-03   -0.31813E-02    49   0.175E+00    0.579E-01
RMM:   5    -0.185024836567E+02   -0.21104E-01   -0.63065E-03    48   0.105E+00    0.170E-01
RMM:   6    -0.185113725850E+02   -0.88889E-02   -0.10813E-03    51   0.303E-01    0.909E-02
RMM:   7    -0.185146443521E+02   -0.32718E-02   -0.21349E-04    49   0.150E-01    0.359E-02
RMM:   8    -0.185170343768E+02   -0.23900E-02   -0.70917E-05    49   0.719E-02    0.134E-02
RMM:   9    -0.185181603487E+02   -0.11260E-02   -0.10501E-05    45   0.317E-02    0.800E-03
RMM:  10    -0.185195947287E+02   -0.14344E-02   -0.13874E-05    46   0.219E-02    0.433E-03
RMM:  11    -0.185204692560E+02   -0.87453E-03   -0.71673E-06    41   0.152E-02    0.310E-03
RMM:  12    -0.185213608386E+02   -0.89158E-03   -0.78419E-06    41   0.145E-02    0.207E-03
RMM:  13    -0.185220827250E+02   -0.72189E-03   -0.71689E-06    41   0.137E-02    0.124E-03
RMM:  14    -0.185224018691E+02   -0.31914E-03   -0.29362E-06    39   0.112E-02    0.860E-04
RMM:  15    -0.185226035682E+02   -0.20170E-03   -0.15381E-06    35   0.900E-03    0.639E-04
RMM:  16    -0.185226561895E+02   -0.52621E-04   -0.45889E-07    33   0.665E-03    0.369E-04
RMM:  17    -0.185227170143E+02   -0.60825E-04   -0.35072E-07    30   0.492E-03    0.340E-04
RMM:  18    -0.185227691435E+02   -0.52129E-04   -0.24687E-07    31   0.448E-03    0.219E-04
RMM:  19    -0.185227885924E+02   -0.19449E-04   -0.11689E-07    26   0.345E-03    0.128E-04
RMM:  20    -0.185227989792E+02   -0.10387E-04   -0.66988E-08    24   0.284E-03    0.120E-04
RMM:  21    -0.185228063441E+02   -0.73648E-05   -0.38866E-08    22   0.242E-03    0.577E-05
RMM:  22    -0.185228112444E+02   -0.49004E-05   -0.22043E-08    20   0.204E-03    0.712E-05
RMM:  23    -0.185228145330E+02   -0.32886E-05   -0.13926E-08    21   0.181E-03    0.403E-05
RMM:  24    -0.185228163839E+02   -0.18509E-05   -0.39173E-09    16   0.154E-03    0.315E-05
RMM:  25    -0.185228173331E+02   -0.94921E-06   -0.13907E-09    15   0.147E-03
  15 F= -.18534254E+02 E0= -.18534254E+02  d E =-.542538E+00  mag=     1.0000
       N       E                     dE             d eps       ncg     rms          rms(c)
DAV:   1    -0.185157484706E+02    0.70679E-02   -0.86297E+00    48   0.385E+01    0.915E-01
RMM:   2    -0.185230878095E+02   -0.73393E-02   -0.12116E-01    48   0.383E+00    0.520E-01
RMM:   3    -0.185279764997E+02   -0.48887E-02   -0.63191E-03    48   0.115E+00    0.326E-01
RMM:   4    -0.185274553659E+02    0.52113E-03   -0.17904E-03    48   0.479E-01    0.108E-01
RMM:   5    -0.185295085581E+02   -0.20532E-02   -0.48272E-04    50   0.261E-01    0.370E-02
RMM:   6    -0.185302871837E+02   -0.77863E-03   -0.64402E-05    49   0.757E-02    0.217E-02
RMM:   7    -0.185307527747E+02   -0.46559E-03   -0.30180E-05    48   0.493E-02    0.843E-03
RMM:   8    -0.185309538580E+02   -0.20108E-03   -0.58307E-06    40   0.222E-02    0.463E-03
RMM:   9    -0.185310983978E+02   -0.14454E-03   -0.22765E-06    35   0.138E-02    0.314E-03
RMM:  10    -0.185312718758E+02   -0.17348E-03   -0.28887E-06    38   0.124E-02    0.206E-03
RMM:  11    -0.185314366022E+02   -0.16473E-03   -0.29450E-06    39   0.120E-02    0.149E-03
RMM:  12    -0.185315296170E+02   -0.93015E-04   -0.10430E-06    34   0.922E-03    0.947E-04
RMM:  13    -0.185316394691E+02   -0.10985E-03   -0.16402E-06    36   0.901E-03    0.804E-04
RMM:  14    -0.185316856596E+02   -0.46190E-04   -0.54951E-07    32   0.871E-03    0.421E-04
RMM:  15    -0.185317103265E+02   -0.24667E-04   -0.27576E-07    32   0.545E-03    0.309E-04
RMM:  16    -0.185317388553E+02   -0.28529E-04   -0.22551E-07    32   0.467E-03    0.206E-04
RMM:  17    -0.185317700360E+02   -0.31181E-04   -0.22079E-07    29   0.407E-03    0.191E-04
RMM:  18    -0.185317783825E+02   -0.83465E-05   -0.86541E-08    27   0.362E-03    0.107E-04
RMM:  19    -0.185317941844E+02   -0.15802E-04   -0.10854E-07    22   0.238E-03    0.100E-04
RMM:  20    -0.185317985616E+02   -0.43772E-05   -0.39560E-08    21   0.266E-03    0.567E-05
RMM:  21    -0.185318012846E+02   -0.27230E-05   -0.23432E-08    20   0.176E-03    0.425E-05
RMM:  22    -0.185318024347E+02   -0.11501E-05   -0.10199E-08    19   0.189E-03    0.477E-05
RMM:  23    -0.185318033560E+02   -0.92135E-06   -0.26491E-09    16   0.138E-03
  16 F= -.18543719E+02 E0= -.18543719E+02  d E =-.552003E+00  mag=     1.0000
       N       E                     dE             d eps       ncg     rms          rms(c)
DAV:   1    -0.186229663614E+02   -0.91164E-01   -0.14095E+00    48   0.153E+01    0.695E-01
RMM:   2    -0.186221186712E+02    0.84769E-03   -0.28917E-02    48   0.201E+00    0.386E-01
RMM:   3    -0.186208605032E+02    0.12582E-02   -0.38970E-03    48   0.811E-01    0.155E-01
RMM:   4    -0.186212801856E+02   -0.41968E-03   -0.71009E-04    48   0.307E-01    0.580E-02
RMM:   5    -0.186216419681E+02   -0.36178E-03   -0.87586E-05    51   0.131E-01    0.306E-02
RMM:   6    -0.186218063063E+02   -0.16434E-03   -0.66662E-05    48   0.704E-02    0.123E-02
RMM:   7    -0.186218835007E+02   -0.77194E-04   -0.10244E-05    46   0.387E-02    0.721E-03
RMM:   8    -0.186219889008E+02   -0.10540E-03   -0.56222E-06    41   0.175E-02    0.448E-03
RMM:   9    -0.186221068192E+02   -0.11792E-03   -0.46658E-06    37   0.158E-02    0.264E-03
RMM:  10    -0.186222135487E+02   -0.10673E-03   -0.28816E-06    36   0.124E-02    0.201E-03
RMM:  11    -0.186222964165E+02   -0.82868E-04   -0.17499E-06    35   0.110E-02    0.128E-03
RMM:  12    -0.186223977774E+02   -0.10136E-03   -0.27583E-06    37   0.117E-02    0.609E-04
RMM:  13    -0.186224529730E+02   -0.55196E-04   -0.78638E-07    33   0.792E-03    0.411E-04
RMM:  14    -0.186224748507E+02   -0.21878E-04   -0.28112E-07    31   0.565E-03    0.327E-04
RMM:  15    -0.186225125145E+02   -0.37664E-04   -0.28511E-07    31   0.449E-03    0.226E-04
RMM:  16    -0.186225499030E+02   -0.37389E-04   -0.27477E-07    31   0.425E-03    0.189E-04
RMM:  17    -0.186225615043E+02   -0.11601E-04   -0.12397E-07    23   0.378E-03    0.146E-04
RMM:  18    -0.186225724609E+02   -0.10957E-04   -0.94592E-08    25   0.282E-03    0.110E-04
RMM:  19    -0.186225766395E+02   -0.41786E-05   -0.47931E-08    21   0.265E-03    0.527E-05
RMM:  20    -0.186225786230E+02   -0.19835E-05   -0.26046E-08    19   0.197E-03    0.630E-05
RMM:  21    -0.186225800300E+02   -0.14070E-05   -0.13280E-08    19   0.188E-03    0.223E-05
RMM:  22    -0.186225813828E+02   -0.13528E-05   -0.57916E-09    17   0.151E-03    0.161E-05
RMM:  23    -0.186225821145E+02   -0.73170E-06   -0.22301E-09    14   0.150E-03
  17 F= -.18634561E+02 E0= -.18634561E+02  d E =-.908421E-01  mag=     1.0000
       N       E                     dE             d eps       ncg     rms          rms(c)
DAV:   1    -0.187096088683E+02   -0.87027E-01   -0.92892E+00    48   0.392E+01    0.147E+00
RMM:   2    -0.187070956746E+02    0.25132E-02   -0.18618E-01    48   0.507E+00    0.726E-01
RMM:   3    -0.187033221161E+02    0.37736E-02   -0.18617E-02    48   0.195E+00    0.355E-01
RMM:   4    -0.187044754721E+02   -0.11534E-02   -0.43650E-03    50   0.666E-01    0.145E-01
RMM:   5    -0.187058333855E+02   -0.13579E-02   -0.46095E-04    49   0.327E-01    0.686E-02
RMM:   6    -0.187065405242E+02   -0.70714E-03   -0.27704E-04    48   0.151E-01    0.285E-02
RMM:   7    -0.187069339295E+02   -0.39341E-03   -0.51606E-05    50   0.844E-02    0.165E-02
RMM:   8    -0.187073539045E+02   -0.41998E-03   -0.25338E-05    47   0.343E-02    0.865E-03
RMM:   9    -0.187077534742E+02   -0.39957E-03   -0.15390E-05    45   0.279E-02    0.459E-03
RMM:  10    -0.187080487217E+02   -0.29525E-03   -0.67475E-06    41   0.181E-02    0.342E-03
RMM:  11    -0.187084017094E+02   -0.35299E-03   -0.93284E-06    42   0.185E-02    0.179E-03
RMM:  12    -0.187086877357E+02   -0.28603E-03   -0.66105E-06    40   0.159E-02    0.109E-03
RMM:  13    -0.187087810441E+02   -0.93308E-04   -0.11188E-06    35   0.100E-02    0.797E-04
RMM:  14    -0.187088697208E+02   -0.88677E-04   -0.70690E-07    33   0.690E-03    0.574E-04
RMM:  15    -0.187089734553E+02   -0.10373E-03   -0.95073E-07    33   0.683E-03    0.437E-04
RMM:  16    -0.187090136393E+02   -0.40184E-04   -0.30502E-07    31   0.619E-03    0.359E-04
RMM:  17    -0.187090450126E+02   -0.31373E-04   -0.24121E-07    28   0.380E-03    0.220E-04
RMM:  18    -0.187090845576E+02   -0.39545E-04   -0.29049E-07    28   0.421E-03    0.202E-04
RMM:  19    -0.187090938117E+02   -0.92541E-05   -0.14116E-07    27   0.393E-03    0.830E-05
RMM:  20    -0.187090973021E+02   -0.34904E-05   -0.63329E-08    22   0.267E-03    0.798E-05
RMM:  21    -0.187091002407E+02   -0.29387E-05   -0.29677E-08    19   0.217E-03    0.420E-05
RMM:  22    -0.187091028851E+02   -0.26443E-05   -0.15505E-08    19   0.174E-03    0.378E-05
RMM:  23    -0.187091057860E+02   -0.29009E-05   -0.77513E-09    17   0.154E-03    0.242E-05
RMM:  24    -0.187091067064E+02   -0.92045E-06   -0.38287E-09    14   0.147E-03
  18 F= -.18721279E+02 E0= -.18721279E+02  d E =-.177560E+00  mag=     1.0000
       N       E                     dE             d eps       ncg     rms          rms(c)
DAV:   1    -0.188183467391E+02   -0.10924E+00   -0.99413E-01    48   0.103E+01    0.327E-01
RMM:   2    -0.188185980254E+02   -0.25129E-03   -0.18707E-02    48   0.129E+00    0.156E-01
RMM:   3    -0.188193783704E+02   -0.78034E-03   -0.14830E-03    49   0.337E-01    0.995E-02
RMM:   4    -0.188190302104E+02    0.34816E-03   -0.26847E-04    48   0.143E-01    0.471E-02
RMM:   5    -0.188192611406E+02   -0.23093E-03   -0.14024E-04    47   0.904E-02    0.152E-02
RMM:   6    -0.188196095645E+02   -0.34842E-03   -0.23754E-05    45   0.413E-02    0.904E-03
RMM:   7    -0.188199444352E+02   -0.33487E-03   -0.14305E-05    46   0.245E-02    0.553E-03
RMM:   8    -0.188202786357E+02   -0.33420E-03   -0.14523E-05    45   0.247E-02    0.313E-03
RMM:   9    -0.188204920736E+02   -0.21344E-03   -0.38253E-06    38   0.144E-02    0.201E-03
RMM:  10    -0.188207567965E+02   -0.26472E-03   -0.62565E-06    40   0.145E-02    0.105E-03
RMM:  11    -0.188208614659E+02   -0.10467E-03   -0.11864E-06    35   0.974E-03    0.722E-04
RMM:  12    -0.188209667722E+02   -0.10531E-03   -0.10099E-06    35   0.630E-03    0.535E-04
RMM:  13    -0.188210616210E+02   -0.94849E-04   -0.55817E-07    32   0.635E-03    0.401E-04
RMM:  14    -0.188211379845E+02   -0.76364E-04   -0.55649E-07    31   0.548E-03    0.287E-04
RMM:  15    -0.188211705460E+02   -0.32561E-04   -0.31292E-07    27   0.516E-03    0.229E-04
RMM:  16    -0.188212000993E+02   -0.29553E-04   -0.27285E-07    27   0.399E-03    0.137E-04
RMM:  17    -0.188212102894E+02   -0.10190E-04   -0.11801E-07    24   0.383E-03    0.968E-05
RMM:  18    -0.188212148709E+02   -0.45815E-05   -0.64025E-08    24   0.256E-03    0.767E-05
RMM:  19    -0.188212182811E+02   -0.34102E-05   -0.27537E-08    21   0.233E-03    0.539E-05
RMM:  20    -0.188212218487E+02   -0.35676E-05   -0.13287E-08    19   0.167E-03    0.299E-05
RMM:  21    -0.188212239013E+02   -0.20526E-05   -0.46179E-09    16   0.153E-03    0.318E-05
RMM:  22    -0.188212248583E+02   -0.95695E-06    0.00000E+00    13   0.132E-03
  19 F= -.18833558E+02 E0= -.18833558E+02  d E =-.112279E+00  mag=     1.0000
       N       E                     dE             d eps       ncg     rms          rms(c)
DAV:   1    -0.191447130367E+02   -0.32349E+00   -0.90634E+00    48   0.311E+01    0.977E-01
RMM:   2    -0.191557615124E+02   -0.11048E-01   -0.17748E-01    48   0.395E+00    0.462E-01
RMM:   3    -0.191620391470E+02   -0.62776E-02   -0.12517E-02    48   0.106E+00    0.296E-01
RMM:   4    -0.191619336436E+02    0.10550E-03   -0.30773E-03    48   0.453E-01    0.140E-01
RMM:   5    -0.191643074752E+02   -0.23738E-02   -0.99643E-04    49   0.261E-01    0.413E-02
RMM:   6    -0.191659382363E+02   -0.16308E-02   -0.12043E-04    47   0.112E-01    0.223E-02
RMM:   7    -0.191673251482E+02   -0.13869E-02   -0.68265E-05    46   0.575E-02    0.859E-03
RMM:   8    -0.191680628792E+02   -0.73773E-03   -0.21756E-05    45   0.388E-02    0.590E-03
RMM:   9    -0.191689519233E+02   -0.88904E-03   -0.20790E-05    45   0.252E-02    0.372E-03
RMM:  10    -0.191696672060E+02   -0.71528E-03   -0.16356E-05    43   0.232E-02    0.238E-03
RMM:  11    -0.191701043425E+02   -0.43714E-03   -0.95638E-06    41   0.159E-02    0.164E-03
RMM:  12    -0.191704214719E+02   -0.31713E-03   -0.59887E-06    39   0.135E-02    0.108E-03
RMM:  13    -0.191706264165E+02   -0.20494E-03   -0.32740E-06    37   0.106E-02    0.736E-04
RMM:  14    -0.191707168905E+02   -0.90474E-04   -0.12968E-06    34   0.993E-03    0.576E-04
RMM:  15    -0.191707769690E+02   -0.60078E-04   -0.89412E-07    31   0.739E-03    0.392E-04
RMM:  16    -0.191708013963E+02   -0.24427E-04   -0.42774E-07    30   0.681E-03    0.362E-04
RMM:  17    -0.191708214430E+02   -0.20047E-04   -0.31337E-07    28   0.492E-03    0.171E-04
RMM:  18    -0.191708352243E+02   -0.13781E-04   -0.17603E-07    27   0.444E-03    0.195E-04
RMM:  19    -0.191708450823E+02   -0.98581E-05   -0.10424E-07    24   0.327E-03    0.101E-04
RMM:  20    -0.191708514878E+02   -0.64055E-05   -0.57768E-08    21   0.286E-03    0.730E-05
RMM:  21    -0.191708547315E+02   -0.32436E-05   -0.29859E-08    20   0.229E-03    0.512E-05
RMM:  22    -0.191708569600E+02   -0.22285E-05   -0.15067E-08    19   0.198E-03    0.362E-05
RMM:  23    -0.191708577379E+02   -0.77794E-06   -0.54823E-09    18   0.173E-03
  20 F= -.19183753E+02 E0= -.19183753E+02  d E =-.462474E+00  mag=     1.0000
       N       E                     dE             d eps       ncg     rms          rms(c)
DAV:   1    -0.197712582821E+02   -0.60040E+00   -0.37601E+01    48   0.632E+01    0.201E+00
RMM:   2    -0.198464626219E+02   -0.75204E-01   -0.84446E-01    48   0.841E+00    0.996E-01
RMM:   3    -0.198679307895E+02   -0.21468E-01   -0.54095E-02    49   0.220E+00    0.631E-01
RMM:   4    -0.198710109319E+02   -0.30801E-02   -0.17160E-02    48   0.910E-01    0.268E-01
RMM:   5    -0.198765521098E+02   -0.55412E-02   -0.28493E-03    49   0.521E-01    0.107E-01
RMM:   6    -0.198792145362E+02   -0.26624E-02   -0.47474E-04    50   0.209E-01    0.503E-02
RMM:   7    -0.198809065618E+02   -0.16920E-02   -0.10858E-04    48   0.978E-02    0.247E-02
RMM:   8    -0.198825975877E+02   -0.16910E-02   -0.88574E-05    48   0.593E-02    0.126E-02
RMM:   9    -0.198834536078E+02   -0.85602E-03   -0.28545E-05    46   0.384E-02    0.855E-03
RMM:  10    -0.198846196947E+02   -0.11661E-02   -0.37513E-05    46   0.307E-02    0.596E-03
RMM:  11    -0.198856577385E+02   -0.10380E-02   -0.48402E-05    46   0.333E-02    0.350E-03
RMM:  12    -0.198862059405E+02   -0.54820E-03   -0.35329E-05    47   0.275E-02    0.285E-03
RMM:  13    -0.198864140329E+02   -0.20809E-03   -0.61909E-06    38   0.164E-02    0.152E-03
RMM:  14    -0.198865998344E+02   -0.18580E-03   -0.65971E-06    39   0.137E-02    0.123E-03
RMM:  15    -0.198866930707E+02   -0.93236E-04   -0.32649E-06    38   0.126E-02    0.784E-04
RMM:  16    -0.198867342046E+02   -0.41134E-04   -0.11170E-06    34   0.788E-03    0.616E-04
RMM:  17    -0.198867637605E+02   -0.29556E-04   -0.58777E-07    31   0.716E-03    0.422E-04
RMM:  18    -0.198867919638E+02   -0.28203E-04   -0.51700E-07    27   0.611E-03    0.356E-04
RMM:  19    -0.198868033226E+02   -0.11359E-04   -0.29213E-07    29   0.553E-03    0.201E-04
RMM:  20    -0.198868134229E+02   -0.10100E-04   -0.16053E-07    27   0.398E-03    0.123E-04
RMM:  21    -0.198868196017E+02   -0.61788E-05   -0.96252E-08    22   0.320E-03    0.979E-05
RMM:  22    -0.198868237285E+02   -0.41268E-05   -0.49559E-08    20   0.268E-03    0.653E-05
RMM:  23    -0.198868252993E+02   -0.15709E-05   -0.20181E-08    20   0.212E-03    0.406E-05
RMM:  24    -0.198868271876E+02   -0.18883E-05   -0.86487E-09    18   0.168E-03    0.272E-05
RMM:  25    -0.198868281134E+02   -0.92575E-06   -0.38819E-09    17   0.155E-03
  21 F= -.19900441E+02 E0= -.19900441E+02  d E =-.117916E+01  mag=     1.0000
       N       E                     dE             d eps       ncg     rms          rms(c)
DAV:   1    -0.197318448315E+02    0.15498E+00   -0.16855E+02    48   0.132E+02    0.467E+00
RMM:   2    -0.202636690058E+02   -0.53182E+00   -0.50218E+00    48   0.200E+01    0.270E+00
RMM:   3    -0.202812749736E+02   -0.17606E-01   -0.25479E-01    49   0.494E+00    0.163E+00
RMM:   4    -0.202784331448E+02    0.28418E-02   -0.20082E-01    48   0.249E+00    0.625E-01
RMM:   5    -0.202988026409E+02   -0.20369E-01   -0.16537E-02    48   0.149E+00    0.330E-01
RMM:   6    -0.203038751293E+02   -0.50725E-02   -0.12693E-02    48   0.707E-01    0.261E-01
RMM:   7    -0.203088124536E+02   -0.49373E-02   -0.64569E-03    48   0.615E-01    0.205E-01
RMM:   8    -0.203132599019E+02   -0.44474E-02   -0.62651E-03    48   0.505E-01    0.174E-01
RMM:   9    -0.203161342031E+02   -0.28743E-02   -0.13107E-02    48   0.743E-01    0.928E-02
RMM:  10    -0.203203823481E+02   -0.42481E-02   -0.16136E-03    48   0.367E-01    0.502E-02
RMM:  11    -0.203238217137E+02   -0.34394E-02   -0.85472E-04    49   0.154E-01    0.216E-02
RMM:  12    -0.203249282082E+02   -0.11065E-02   -0.78776E-05    47   0.855E-02    0.134E-02
RMM:  13    -0.203260650156E+02   -0.11368E-02   -0.35566E-05    45   0.324E-02    0.746E-03
RMM:  14    -0.203273418551E+02   -0.12768E-02   -0.26263E-05    46   0.303E-02    0.426E-03
RMM:  15    -0.203279202649E+02   -0.57841E-03   -0.95634E-06    42   0.168E-02    0.337E-03
RMM:  16    -0.203290217876E+02   -0.11015E-02   -0.18649E-05    44   0.204E-02    0.223E-03
RMM:  17    -0.203296075135E+02   -0.58573E-03   -0.19917E-05    44   0.198E-02    0.188E-03
RMM:  18    -0.203297036874E+02   -0.96174E-04   -0.40848E-06    39   0.137E-02    0.103E-03
RMM:  19    -0.203297514859E+02   -0.47799E-04   -0.77326E-07    33   0.807E-03    0.654E-04
RMM:  20    -0.203298078344E+02   -0.56349E-04   -0.40007E-07    31   0.661E-03    0.486E-04
RMM:  21    -0.203298695848E+02   -0.61750E-04   -0.38574E-07    32   0.543E-03    0.370E-04
RMM:  22    -0.203298970815E+02   -0.27497E-04   -0.22202E-07    30   0.488E-03    0.292E-04
RMM:  23    -0.203299148588E+02   -0.17777E-04   -0.13873E-07    27   0.377E-03    0.205E-04
RMM:  24    -0.203299380814E+02   -0.23223E-04   -0.19298E-07    27   0.345E-03    0.148E-04
RMM:  25    -0.203299406816E+02   -0.26002E-05   -0.80504E-08    23   0.357E-03    0.101E-04
RMM:  26    -0.203299441459E+02   -0.34643E-05   -0.37712E-08    19   0.208E-03    0.579E-05
RMM:  27    -0.203299470387E+02   -0.28928E-05   -0.20318E-08    19   0.211E-03    0.555E-05
RMM:  28    -0.203299487280E+02   -0.16893E-05   -0.10748E-08    18   0.161E-03    0.282E-05
RMM:  29    -0.203299497012E+02   -0.97319E-06   -0.57549E-09    18   0.160E-03
  22 F= -.20343968E+02 E0= -.20343968E+02  d E =-.162269E+01  mag=     1.0000
       N       E                     dE             d eps       ncg     rms          rms(c)
DAV:   1    -0.202441918255E+02    0.85757E-01   -0.61557E+01    48   0.817E+01    0.350E+00
RMM:   2    -0.202917953706E+02   -0.47604E-01   -0.17893E+00    48   0.128E+01    0.165E+00
RMM:   3    -0.203623028624E+02   -0.70507E-01   -0.31190E-01    54   0.413E+00    0.108E+00
RMM:   4    -0.203750497655E+02   -0.12747E-01   -0.13557E-02    48   0.111E+00    0.599E-01
RMM:   5    -0.203867610571E+02   -0.11711E-01   -0.16765E-02    48   0.856E-01    0.203E-01
RMM:   6    -0.203929535225E+02   -0.61925E-02   -0.17830E-03    48   0.415E-01    0.989E-02
RMM:   7    -0.203959956569E+02   -0.30421E-02   -0.11393E-03    50   0.208E-01    0.362E-02
RMM:   8    -0.203977101914E+02   -0.17145E-02   -0.21887E-04    48   0.128E-01    0.244E-02
RMM:   9    -0.203990511745E+02   -0.13410E-02   -0.11217E-04    46   0.598E-02    0.171E-02
RMM:  10    -0.204004055179E+02   -0.13543E-02   -0.94447E-05    46   0.621E-02    0.111E-02
RMM:  11    -0.204016553674E+02   -0.12498E-02   -0.85277E-05    46   0.538E-02    0.590E-03
RMM:  12    -0.204025082993E+02   -0.85293E-03   -0.48122E-05    47   0.426E-02    0.389E-03
RMM:  13    -0.204030931309E+02   -0.58483E-03   -0.35884E-05    46   0.308E-02    0.233E-03
RMM:  14    -0.204034350971E+02   -0.34197E-03   -0.12298E-05    42   0.221E-02    0.166E-03
RMM:  15    -0.204036013233E+02   -0.16623E-03   -0.33932E-06    38   0.124E-02    0.115E-03
RMM:  16    -0.204037157073E+02   -0.11438E-03   -0.18837E-06    36   0.975E-03    0.836E-04
RMM:  17    -0.204037786988E+02   -0.62991E-04   -0.74516E-07    33   0.773E-03    0.641E-04
RMM:  18    -0.204038178585E+02   -0.39160E-04   -0.47714E-07    31   0.658E-03    0.442E-04
RMM:  19    -0.204038537288E+02   -0.35870E-04   -0.48673E-07    29   0.550E-03    0.344E-04
RMM:  20    -0.204038738997E+02   -0.20171E-04   -0.30731E-07    30   0.557E-03    0.210E-04
RMM:  21    -0.204038833054E+02   -0.94057E-05   -0.15659E-07    27   0.409E-03    0.153E-04
RMM:  22    -0.204038890330E+02   -0.57276E-05   -0.63823E-08    20   0.306E-03    0.105E-04
RMM:  23    -0.204038938543E+02   -0.48213E-05   -0.33634E-08    20   0.223E-03    0.681E-05
RMM:  24    -0.204038963806E+02   -0.25263E-05   -0.18181E-08    20   0.204E-03    0.569E-05
RMM:  25    -0.204038970226E+02   -0.64197E-06   -0.65824E-09    18   0.166E-03
  23 F= -.20416709E+02 E0= -.20416709E+02  d E =-.169543E+01  mag=     1.0000
       N       E                     dE             d eps       ncg     rms          rms(c)
DAV:   1    -0.205177815783E+02   -0.11389E+00   -0.14581E+01    48   0.387E+01    0.152E+00
RMM:   2    -0.205386001001E+02   -0.20819E-01   -0.32189E-01    48   0.568E+00    0.794E-01
RMM:   3    -0.205464720883E+02   -0.78720E-02   -0.34186E-02    54   0.153E+00    0.476E-01
RMM:   4    -0.205484835224E+02   -0.20114E-02   -0.92100E-03    51   0.692E-01    0.223E-01
RMM:   5    -0.205504241612E+02   -0.19406E-02   -0.12474E-03    48   0.323E-01    0.979E-02
RMM:   6    -0.205514767044E+02   -0.10525E-02   -0.61654E-04    49   0.194E-01    0.553E-02
RMM:   7    -0.205521842488E+02   -0.70754E-03   -0.19779E-04    49   0.109E-01    0.366E-02
RMM:   8    -0.205530671499E+02   -0.88290E-03   -0.39939E-04    48   0.134E-01    0.209E-02
RMM:   9    -0.205535630926E+02   -0.49594E-03   -0.96945E-05    46   0.820E-02    0.145E-02
RMM:  10    -0.205541118647E+02   -0.54877E-03   -0.15375E-04    47   0.764E-02    0.660E-03
RMM:  11    -0.205545225381E+02   -0.41067E-03   -0.53547E-05    46   0.563E-02    0.347E-03
RMM:  12    -0.205547797303E+02   -0.25719E-03   -0.17099E-05    46   0.264E-02    0.206E-03
RMM:  13    -0.205549200923E+02   -0.14036E-03   -0.33590E-06    37   0.145E-02    0.141E-03
RMM:  14    -0.205550363907E+02   -0.11630E-03   -0.25472E-06    37   0.119E-02    0.904E-04
RMM:  15    -0.205551548943E+02   -0.11850E-03   -0.11689E-06    33   0.103E-02    0.700E-04
RMM:  16    -0.205552291792E+02   -0.74285E-04   -0.92927E-07    33   0.877E-03    0.557E-04
RMM:  17    -0.205552797295E+02   -0.50550E-04   -0.80024E-07    33   0.866E-03    0.485E-04
RMM:  18    -0.205553338119E+02   -0.54082E-04   -0.10481E-06    32   0.782E-03    0.299E-04
RMM:  19    -0.205553471767E+02   -0.13365E-04   -0.40481E-07    30   0.702E-03    0.235E-04
RMM:  20    -0.205553554555E+02   -0.82789E-05   -0.22295E-07    26   0.446E-03    0.161E-04
RMM:  21    -0.205553625970E+02   -0.71415E-05   -0.11177E-07    25   0.410E-03    0.106E-04
RMM:  22    -0.205553672038E+02   -0.46068E-05   -0.57179E-08    23   0.266E-03    0.749E-05
RMM:  23    -0.205553686491E+02   -0.14453E-05   -0.26152E-08    20   0.237E-03    0.679E-05
RMM:  24    -0.205553709354E+02   -0.22863E-05   -0.10519E-08    18   0.170E-03    0.476E-05
RMM:  25    -0.205553721452E+02   -0.12099E-05   -0.53956E-09    18   0.160E-03    0.405E-05
RMM:  26    -0.205553729548E+02   -0.80952E-06   -0.10101E-09    16   0.143E-03
  24 F= -.20568743E+02 E0= -.20568743E+02  d E =-.184746E+01  mag=     1.0000
       N       E                     dE             d eps       ncg     rms          rms(c)
DAV:   1    -0.203976328016E+02    0.15774E+00   -0.54904E+01    48   0.977E+01    0.424E+00
RMM:   2    -0.204565278805E+02   -0.58895E-01   -0.15667E+00    48   0.141E+01    0.245E+00
RMM:   3    -0.204174141840E+02    0.39114E-01   -0.13859E-01    49   0.450E+00    0.114E+00
RMM:   4    -0.204184414572E+02   -0.10273E-02   -0.50780E-02    50   0.221E+00    0.492E-01
RMM:   5    -0.204231982502E+02   -0.47568E-02   -0.36744E-03    49   0.994E-01    0.220E-01
RMM:   6    -0.204241198891E+02   -0.92164E-03   -0.20964E-03    48   0.473E-01    0.679E-02
RMM:   7    -0.204250387400E+02   -0.91885E-03   -0.30017E-04    50   0.209E-01    0.350E-02
RMM:   8    -0.204256569235E+02   -0.61818E-03   -0.45689E-05    49   0.522E-02    0.212E-02
RMM:   9    -0.204264861230E+02   -0.82920E-03   -0.61304E-05    50   0.477E-02    0.882E-03
RMM:  10    -0.204267484345E+02   -0.26231E-03   -0.10695E-05    42   0.203E-02    0.578E-03
RMM:  11    -0.204271664340E+02   -0.41800E-03   -0.15904E-05    38   0.190E-02    0.364E-03
RMM:  12    -0.204276462837E+02   -0.47985E-03   -0.35359E-05    45   0.234E-02    0.276E-03
RMM:  13    -0.204277861743E+02   -0.13989E-03   -0.77587E-06    39   0.152E-02    0.218E-03
RMM:  14    -0.204279552859E+02   -0.16911E-03   -0.10169E-05    38   0.140E-02    0.120E-03
RMM:  15    -0.204280100623E+02   -0.54776E-04   -0.41661E-06    38   0.122E-02    0.696E-04
RMM:  16    -0.204280412512E+02   -0.31189E-04   -0.11499E-06    35   0.775E-03    0.468E-04
RMM:  17    -0.204280583548E+02   -0.17104E-04   -0.40018E-07    32   0.650E-03    0.415E-04
RMM:  18    -0.204280695812E+02   -0.11226E-04   -0.22910E-07    31   0.464E-03    0.330E-04
RMM:  19    -0.204280817738E+02   -0.12193E-04   -0.17802E-07    28   0.395E-03    0.229E-04
RMM:  20    -0.204280918515E+02   -0.10078E-04   -0.17763E-07    26   0.349E-03    0.186E-04
RMM:  21    -0.204280957528E+02   -0.39014E-05   -0.10265E-07    26   0.342E-03    0.143E-04
RMM:  22    -0.204280981356E+02   -0.23827E-05   -0.52029E-08    21   0.257E-03    0.879E-05
RMM:  23    -0.204280992935E+02   -0.11579E-05   -0.26395E-08    21   0.218E-03    0.501E-05
RMM:  24    -0.204281003931E+02   -0.10996E-05   -0.11714E-08    18   0.174E-03    0.409E-05
RMM:  25    -0.204281007835E+02   -0.39045E-06   -0.62940E-09    18   0.162E-03
  25 F= -.20442227E+02 E0= -.20442227E+02  d E =0.126516E+00  mag=     1.0000
       N       E                     dE             d eps       ncg     rms          rms(c)
DAV:   1    -0.207328498136E+02   -0.30475E+00   -0.16121E+01    48   0.501E+01    0.273E+00
RMM:   2    -0.207230531074E+02    0.97967E-02   -0.36483E-01    48   0.715E+00    0.154E+00
RMM:   3    -0.207120463803E+02    0.11007E-01   -0.67227E-02    49   0.294E+00    0.583E-01
RMM:   4    -0.207181241438E+02   -0.60778E-02   -0.94569E-03    49   0.119E+00    0.240E-01
RMM:   5    -0.207200922094E+02   -0.19681E-02   -0.73656E-04    48   0.348E-01    0.102E-01
RMM:   6    -0.207208232987E+02   -0.73109E-03   -0.79098E-04    50   0.271E-01    0.351E-02
RMM:   7    -0.207211641008E+02   -0.34080E-03   -0.83099E-05    55   0.985E-02    0.227E-02
RMM:   8    -0.207214152207E+02   -0.25112E-03   -0.26922E-05    49   0.496E-02    0.122E-02
RMM:   9    -0.207216721812E+02   -0.25696E-03   -0.17704E-05    48   0.253E-02    0.412E-03
RMM:  10    -0.207217835567E+02   -0.11138E-03   -0.37348E-06    39   0.131E-02    0.278E-03
RMM:  11    -0.207219522238E+02   -0.16867E-03   -0.58629E-06    38   0.119E-02    0.204E-03
RMM:  12    -0.207221714456E+02   -0.21922E-03   -0.17811E-05    44   0.177E-02    0.140E-03
RMM:  13    -0.207222093902E+02   -0.37945E-04   -0.22168E-06    36   0.124E-02    0.107E-03
RMM:  14    -0.207222648969E+02   -0.55507E-04   -0.34800E-06    38   0.796E-03    0.749E-04
RMM:  15    -0.207222893516E+02   -0.24455E-04   -0.16741E-06    33   0.847E-03    0.610E-04
RMM:  16    -0.207222964483E+02   -0.70968E-05   -0.47018E-07    32   0.675E-03    0.371E-04
RMM:  17    -0.207223061474E+02   -0.96991E-05   -0.30535E-07    29   0.518E-03    0.292E-04
RMM:  18    -0.207223152670E+02   -0.91196E-05   -0.25955E-07    26   0.422E-03    0.174E-04
RMM:  19    -0.207223187102E+02   -0.34433E-05   -0.12516E-07    22   0.396E-03    0.147E-04
RMM:  20    -0.207223222760E+02   -0.35657E-05   -0.92894E-08    22   0.273E-03    0.941E-05
RMM:  21    -0.207223254345E+02   -0.31586E-05   -0.78299E-08    22   0.292E-03    0.858E-05
RMM:  22    -0.207223259422E+02   -0.50771E-06   -0.36421E-08    20   0.249E-03
  26 F= -.20736021E+02 E0= -.20736021E+02  d E =-.167278E+00  mag=     1.0000
       N       E                     dE             d eps       ncg     rms          rms(c)
DAV:   1    -0.207829965669E+02   -0.60671E-01   -0.20023E+00    48   0.183E+01    0.669E-01
RMM:   2    -0.207832976227E+02   -0.30106E-03   -0.31847E-02    48   0.193E+00    0.322E-01
RMM:   3    -0.207853620597E+02   -0.20644E-02   -0.30355E-03    48   0.627E-01    0.175E-01
RMM:   4    -0.207859070087E+02   -0.54495E-03   -0.85073E-04    48   0.274E-01    0.601E-02
RMM:   5    -0.207865845587E+02   -0.67755E-03   -0.20509E-04    48   0.127E-01    0.281E-02
RMM:   6    -0.207869508908E+02   -0.36633E-03   -0.74463E-05    46   0.592E-02    0.110E-02
RMM:   7    -0.207871375007E+02   -0.18661E-03   -0.22567E-05    45   0.376E-02    0.604E-03
RMM:   8    -0.207872589958E+02   -0.12150E-03   -0.37006E-06    38   0.145E-02    0.369E-03
RMM:   9    -0.207874060153E+02   -0.14702E-03   -0.48672E-06    39   0.147E-02    0.169E-03
RMM:  10    -0.207874604456E+02   -0.54430E-04   -0.10431E-06    34   0.108E-02    0.117E-03
RMM:  11    -0.207875174828E+02   -0.57037E-04   -0.74058E-07    33   0.755E-03    0.816E-04
RMM:  12    -0.207875980292E+02   -0.80546E-04   -0.12438E-06    36   0.824E-03    0.466E-04
RMM:  13    -0.207876265278E+02   -0.28499E-04   -0.33758E-07    33   0.596E-03    0.373E-04
RMM:  14    -0.207876436073E+02   -0.17080E-04   -0.18049E-07    31   0.495E-03    0.282E-04
RMM:  15    -0.207876800370E+02   -0.36430E-04   -0.25045E-07    33   0.399E-03    0.210E-04
RMM:  16    -0.207877072272E+02   -0.27190E-04   -0.17177E-07    31   0.428E-03    0.178E-04
RMM:  17    -0.207877220811E+02   -0.14854E-04   -0.13434E-07    28   0.359E-03    0.116E-04
RMM:  18    -0.207877299868E+02   -0.79057E-05   -0.85481E-08    25   0.318E-03    0.915E-05
RMM:  19    -0.207877353732E+02   -0.53864E-05   -0.53008E-08    19   0.248E-03    0.626E-05
RMM:  20    -0.207877383319E+02   -0.29587E-05   -0.33127E-08    19   0.231E-03    0.504E-05
RMM:  21    -0.207877398417E+02   -0.15098E-05   -0.21262E-08    20   0.196E-03    0.424E-05
RMM:  22    -0.207877401921E+02   -0.35047E-06   -0.92511E-09    18   0.176E-03
  27 F= -.20801591E+02 E0= -.20801591E+02  d E =-.655701E-01  mag=     1.0000
       N       E                     dE             d eps       ncg     rms          rms(c)
DAV:   1    -0.208768098064E+02   -0.89070E-01   -0.18105E+01    48   0.551E+01    0.190E+00
RMM:   2    -0.208892904962E+02   -0.12481E-01   -0.30077E-01    48   0.602E+00    0.903E-01
RMM:   3    -0.209038117641E+02   -0.14521E-01   -0.27921E-02    48   0.189E+00    0.506E-01
RMM:   4    -0.209086204528E+02   -0.48087E-02   -0.64183E-03    48   0.762E-01    0.183E-01
RMM:   5    -0.209126527648E+02   -0.40323E-02   -0.15511E-03    48   0.371E-01    0.752E-02
RMM:   6    -0.209144705090E+02   -0.18177E-02   -0.45365E-04    50   0.144E-01    0.303E-02
RMM:   7    -0.209152392031E+02   -0.76869E-03   -0.11405E-04    49   0.830E-02    0.171E-02
RMM:   8    -0.209158065530E+02   -0.56735E-03   -0.30980E-05    45   0.361E-02    0.103E-02
RMM:   9    -0.209163343025E+02   -0.52775E-03   -0.29123E-05    43   0.350E-02    0.590E-03
RMM:  10    -0.209165939901E+02   -0.25969E-03   -0.10511E-05    41   0.235E-02    0.476E-03
RMM:  11    -0.209170823962E+02   -0.48841E-03   -0.26528E-05    44   0.298E-02    0.231E-03
RMM:  12    -0.209172913264E+02   -0.20893E-03   -0.79221E-06    41   0.212E-02    0.144E-03
RMM:  13    -0.209173999499E+02   -0.10862E-03   -0.23849E-06    35   0.116E-02    0.100E-03
RMM:  14    -0.209174821824E+02   -0.82233E-04   -0.12328E-06    35   0.103E-02    0.674E-04
RMM:  15    -0.209175679506E+02   -0.85768E-04   -0.13656E-06    36   0.878E-03    0.441E-04
RMM:  16    -0.209175904535E+02   -0.22503E-04   -0.20938E-07    31   0.637E-03    0.324E-04
RMM:  17    -0.209176236067E+02   -0.33153E-04   -0.17995E-07    31   0.379E-03    0.182E-04
RMM:  18    -0.209176458138E+02   -0.22207E-04   -0.12059E-07    30   0.378E-03    0.168E-04
RMM:  19    -0.209176573979E+02   -0.11584E-04   -0.52505E-08    23   0.291E-03    0.104E-04
RMM:  20    -0.209176643134E+02   -0.69155E-05   -0.31647E-08    21   0.216E-03    0.730E-05
RMM:  21    -0.209176711219E+02   -0.68085E-05   -0.20875E-08    20   0.206E-03    0.598E-05
RMM:  22    -0.209176737989E+02   -0.26770E-05   -0.98558E-09    19   0.179E-03    0.389E-05
RMM:  23    -0.209176765711E+02   -0.27722E-05   -0.51898E-09    18   0.161E-03    0.249E-05
RMM:  24    -0.209176782462E+02   -0.16751E-05    0.00000E+00    14   0.150E-03    0.173E-05
RMM:  25    -0.209176791102E+02   -0.86403E-06    0.00000E+00    14   0.153E-03
  28 F= -.20932047E+02 E0= -.20932047E+02  d E =-.196026E+00  mag=     1.0000
       N       E                     dE             d eps       ncg     rms          rms(c)
DAV:   1    -0.207536931380E+02    0.16399E+00   -0.72823E+01    48   0.111E+02    0.343E+00
RMM:   2    -0.208084730557E+02   -0.54780E-01   -0.13612E+00    48   0.126E+01    0.162E+00
RMM:   3    -0.208641943171E+02   -0.55721E-01   -0.13154E-01    50   0.386E+00    0.979E-01
RMM:   4    -0.208789916499E+02   -0.14797E-01   -0.14902E-02    48   0.124E+00    0.408E-01
RMM:   5    -0.208909606807E+02   -0.11969E-01   -0.57518E-03    48   0.837E-01    0.135E-01
RMM:   6    -0.208950897381E+02   -0.41291E-02   -0.11528E-03    54   0.271E-01    0.610E-02
RMM:   7    -0.208971203294E+02   -0.20306E-02   -0.17898E-04    48   0.124E-01    0.287E-02
RMM:   8    -0.208986077210E+02   -0.14874E-02   -0.14515E-04    48   0.884E-02    0.126E-02
RMM:   9    -0.208992432306E+02   -0.63551E-03   -0.30636E-05    47   0.436E-02    0.970E-03
RMM:  10    -0.208998782594E+02   -0.63503E-03   -0.20915E-05    43   0.266E-02    0.683E-03
RMM:  11    -0.209006747648E+02   -0.79651E-03   -0.31051E-05    43   0.335E-02    0.515E-03
RMM:  12    -0.209010481620E+02   -0.37340E-03   -0.11767E-05    41   0.240E-02    0.386E-03
RMM:  13    -0.209016864065E+02   -0.63824E-03   -0.36616E-05    45   0.346E-02    0.291E-03
RMM:  14    -0.209018790929E+02   -0.19269E-03   -0.93280E-06    41   0.237E-02    0.148E-03
RMM:  15    -0.209019631481E+02   -0.84055E-04   -0.27326E-06    35   0.118E-02    0.110E-03
RMM:  16    -0.209020311144E+02   -0.67966E-04   -0.30258E-06    38   0.129E-02    0.669E-04
RMM:  17    -0.209020526832E+02   -0.21569E-04   -0.46082E-07    33   0.803E-03    0.477E-04
RMM:  18    -0.209020780076E+02   -0.25324E-04   -0.28688E-07    31   0.534E-03    0.368E-04
RMM:  19    -0.209020914045E+02   -0.13397E-04   -0.26844E-07    31   0.497E-03    0.236E-04
RMM:  20    -0.209021046057E+02   -0.13201E-04   -0.15157E-07    27   0.409E-03    0.200E-04
RMM:  21    -0.209021129512E+02   -0.83455E-05   -0.86550E-08    25   0.320E-03    0.161E-04
RMM:  22    -0.209021191670E+02   -0.62158E-05   -0.61070E-08    27   0.271E-03    0.141E-04
RMM:  23    -0.209021233806E+02   -0.42136E-05   -0.30333E-08    21   0.215E-03    0.119E-04
RMM:  24    -0.209021280625E+02   -0.46819E-05   -0.45160E-08    25   0.213E-03    0.100E-04
RMM:  25    -0.209021301003E+02   -0.20378E-05   -0.20848E-08    20   0.198E-03    0.698E-05
RMM:  26    -0.209021315238E+02   -0.14235E-05   -0.89038E-09    18   0.163E-03    0.671E-05
RMM:  27    -0.209021313865E+02    0.13723E-06   -0.35642E-09    17   0.148E-03
  29 F= -.20917857E+02 E0= -.20917857E+02  d E =-.181837E+00  mag=     1.0000
       N       E                     dE             d eps       ncg     rms          rms(c)
DAV:   1    -0.209254629132E+02   -0.23331E-01   -0.19617E+01    48   0.565E+01    0.175E+00
RMM:   2    -0.209312486978E+02   -0.57858E-02   -0.29494E-01    48   0.564E+00    0.839E-01
RMM:   3    -0.209442116554E+02   -0.12963E-01   -0.20125E-02    48   0.175E+00    0.481E-01
RMM:   4    -0.209476153467E+02   -0.34037E-02   -0.75165E-03    50   0.695E-01    0.186E-01
RMM:   5    -0.209495588505E+02   -0.19435E-02   -0.11021E-03    50   0.372E-01    0.753E-02
RMM:   6    -0.209501685291E+02   -0.60968E-03   -0.44680E-04    49   0.164E-01    0.370E-02
RMM:   7    -0.209506561426E+02   -0.48761E-03   -0.14622E-04    46   0.103E-01    0.219E-02
RMM:   8    -0.209509792768E+02   -0.32313E-03   -0.77505E-05    44   0.580E-02    0.181E-02
RMM:   9    -0.209513749199E+02   -0.39564E-03   -0.17731E-04    44   0.838E-02    0.122E-02
RMM:  10    -0.209516020391E+02   -0.22712E-03   -0.66383E-05    44   0.595E-02    0.102E-02
RMM:  11    -0.209519088194E+02   -0.30678E-03   -0.19491E-04    45   0.822E-02    0.590E-03
RMM:  12    -0.209521441866E+02   -0.23537E-03   -0.14216E-04    44   0.778E-02    0.335E-03
RMM:  13    -0.209522604738E+02   -0.11629E-03   -0.92879E-06    39   0.370E-02    0.226E-03
RMM:  14    -0.209523249252E+02   -0.64451E-04   -0.20341E-05    41   0.243E-02    0.136E-03
RMM:  15    -0.209523761547E+02   -0.51229E-04   -0.12428E-06    35   0.999E-03    0.912E-04
RMM:  16    -0.209524065982E+02   -0.30443E-04   -0.15915E-06    35   0.810E-03    0.541E-04
RMM:  17    -0.209524320427E+02   -0.25444E-04   -0.35126E-07    30   0.579E-03    0.424E-04
RMM:  18    -0.209524527132E+02   -0.20671E-04   -0.22131E-07    31   0.434E-03    0.312E-04
RMM:  19    -0.209524713366E+02   -0.18623E-04   -0.27275E-07    31   0.454E-03    0.199E-04
RMM:  20    -0.209524818560E+02   -0.10519E-04   -0.11860E-07    29   0.376E-03    0.187E-04
RMM:  21    -0.209524927849E+02   -0.10929E-04   -0.19070E-07    29   0.344E-03    0.121E-04
RMM:  22    -0.209524987538E+02   -0.59689E-05   -0.67740E-08    25   0.309E-03    0.109E-04
RMM:  23    -0.209525006521E+02   -0.18984E-05   -0.32922E-08    21   0.216E-03    0.613E-05
RMM:  24    -0.209525021330E+02   -0.14809E-05   -0.16572E-08    19   0.202E-03    0.665E-05
RMM:  25    -0.209525040784E+02   -0.19454E-05   -0.11168E-08    18   0.170E-03    0.498E-05
RMM:  26    -0.209525059630E+02   -0.18846E-05   -0.14388E-08    19   0.176E-03    0.659E-05
RMM:  27    -0.209525061786E+02   -0.21565E-06   -0.56227E-09    18   0.173E-03
  30 F= -.20967465E+02 E0= -.20967465E+02  d E =-.231444E+00  mag=     1.0000
       N       E                     dE             d eps       ncg     rms          rms(c)
DAV:   1    -0.209902947395E+02   -0.37789E-01   -0.27635E+00    48   0.213E+01    0.825E-01
RMM:   2    -0.209879167407E+02    0.23780E-02   -0.45916E-02    48   0.261E+00    0.428E-01
RMM:   3    -0.209891417515E+02   -0.12250E-02   -0.53271E-03    50   0.988E-01    0.245E-01
RMM:   4    -0.209901611012E+02   -0.10193E-02   -0.11884E-03    48   0.401E-01    0.955E-02
RMM:   5    -0.209907024178E+02   -0.54132E-03   -0.18521E-04    48   0.184E-01    0.311E-02
RMM:   6    -0.209908917503E+02   -0.18933E-03   -0.46797E-05    50   0.703E-02    0.152E-02
RMM:   7    -0.209909763186E+02   -0.84568E-04   -0.13767E-05    48   0.363E-02    0.631E-03
RMM:   8    -0.209910390956E+02   -0.62777E-04   -0.48583E-06    42   0.173E-02    0.378E-03
RMM:   9    -0.209910851729E+02   -0.46077E-04   -0.25437E-06    36   0.137E-02    0.249E-03
RMM:  10    -0.209911341710E+02   -0.48998E-04   -0.32634E-06    37   0.124E-02    0.184E-03
RMM:  11    -0.209911782388E+02   -0.44068E-04   -0.26767E-06    36   0.126E-02    0.143E-03
RMM:  12    -0.209912368081E+02   -0.58569E-04   -0.72830E-06    41   0.167E-02    0.780E-04
RMM:  13    -0.209912536191E+02   -0.16811E-04   -0.84018E-07    33   0.120E-02    0.598E-04
RMM:  14    -0.209912620112E+02   -0.83921E-05   -0.55118E-07    31   0.640E-03    0.373E-04
RMM:  15    -0.209912702483E+02   -0.82371E-05   -0.47132E-07    32   0.693E-03    0.372E-04
RMM:  16    -0.209912752938E+02   -0.50456E-05   -0.22682E-07    30   0.534E-03    0.178E-04
RMM:  17    -0.209912805502E+02   -0.52564E-05   -0.17992E-07    27   0.377E-03    0.156E-04
RMM:  18    -0.209912838821E+02   -0.33318E-05   -0.13257E-07    26   0.367E-03    0.122E-04
[...]
RMM:  15    -0.212999007469E+02   -0.11575E-03   -0.14013E-06    35   0.770E-03    0.563E-04
RMM:  16    -0.212999407978E+02   -0.40051E-04   -0.39799E-07    29   0.550E-03    0.440E-04
RMM:  17    -0.212999998451E+02   -0.59047E-04   -0.44132E-07    29   0.508E-03    0.336E-04
RMM:  18    -0.213000514353E+02   -0.51590E-04   -0.55462E-07    29   0.528E-03    0.281E-04
RMM:  19    -0.213000658898E+02   -0.14455E-04   -0.28463E-07    27   0.513E-03    0.187E-04
RMM:  20    -0.213000722062E+02   -0.63164E-05   -0.14090E-07    24   0.347E-03    0.116E-04
RMM:  21    -0.213000823631E+02   -0.10157E-04   -0.93106E-08    24   0.296E-03    0.879E-05
RMM:  22    -0.213000876485E+02   -0.52854E-05   -0.55981E-08    22   0.245E-03    0.593E-05
RMM:  23    -0.213000899692E+02   -0.23207E-05   -0.27895E-08    20   0.215E-03    0.361E-05
RMM:  24    -0.213000918988E+02   -0.19297E-05   -0.17382E-08    20   0.181E-03    0.432E-05
RMM:  25    -0.213000933790E+02   -0.14802E-05   -0.87094E-09    18   0.165E-03    0.169E-05
RMM:  26    -0.213000938892E+02   -0.51011E-06   -0.30506E-09    15   0.148E-03
 132 F= -.21309455E+02 E0= -.21309455E+02  d E =-.548606E-01  mag=     1.0000
       N       E                     dE             d eps       ncg     rms          rms(c)
DAV:   1    -0.212891671496E+02    0.10926E-01   -0.10832E+01    48   0.434E+01    0.167E+00
RMM:   2    -0.213030062079E+02   -0.13839E-01   -0.22854E-01    48   0.526E+00    0.922E-01
RMM:   3    -0.213019784871E+02    0.10277E-02   -0.15848E-02    49   0.193E+00    0.450E-01
RMM:   4    -0.213031807621E+02   -0.12023E-02   -0.43208E-03    50   0.687E-01    0.184E-01
RMM:   5    -0.213078215684E+02   -0.46408E-02   -0.67456E-04    48   0.358E-01    0.858E-02
RMM:   6    -0.213099237924E+02   -0.21022E-02   -0.21049E-04    51   0.127E-01    0.327E-02
RMM:   7    -0.213109248976E+02   -0.10011E-02   -0.41003E-05    49   0.604E-02    0.988E-03
RMM:   8    -0.213114196400E+02   -0.49474E-03   -0.68601E-06    42   0.211E-02    0.568E-03
RMM:   9    -0.213119149500E+02   -0.49531E-03   -0.31025E-06    38   0.130E-02    0.340E-03
RMM:  10    -0.213124256351E+02   -0.51069E-03   -0.48130E-06    39   0.116E-02    0.192E-03
RMM:  11    -0.213127203731E+02   -0.29474E-03   -0.26338E-06    38   0.923E-03    0.155E-03
RMM:  12    -0.213130107131E+02   -0.29034E-03   -0.34130E-06    39   0.894E-03    0.117E-03
RMM:  13    -0.213132892723E+02   -0.27856E-03   -0.42459E-06    39   0.917E-03    0.778E-04
RMM:  14    -0.213134279885E+02   -0.13872E-03   -0.18884E-06    36   0.782E-03    0.569E-04
RMM:  15    -0.213134821673E+02   -0.54179E-04   -0.69549E-07    30   0.625E-03    0.404E-04
RMM:  16    -0.213135028987E+02   -0.20731E-04   -0.34562E-07    29   0.565E-03    0.278E-04
RMM:  17    -0.213135219135E+02   -0.19015E-04   -0.24014E-07    28   0.415E-03    0.206E-04
RMM:  18    -0.213135357400E+02   -0.13827E-04   -0.14308E-07    24   0.373E-03    0.142E-04
RMM:  19    -0.213135511025E+02   -0.15362E-04   -0.15960E-07    25   0.318E-03    0.955E-05
RMM:  20    -0.213135536609E+02   -0.25584E-05   -0.66217E-08    23   0.318E-03    0.709E-05
RMM:  21    -0.213135554793E+02   -0.18184E-05   -0.31939E-08    21   0.202E-03    0.458E-05
RMM:  22    -0.213135580072E+02   -0.25279E-05   -0.16154E-08    20   0.203E-03    0.403E-05
RMM:  23    -0.213135594939E+02   -0.14867E-05   -0.10125E-08    19   0.164E-03    0.396E-05
RMM:  24    -0.213135600947E+02   -0.60084E-06   -0.47423E-09    17   0.163E-03
 133 F= -.21322279E+02 E0= -.21322279E+02  d E =-.676838E-01  mag=     1.0000
       N       E                     dE             d eps       ncg     rms          rms(c)
DAV:   1    -0.213118236586E+02    0.17358E-02   -0.17179E+00    72   0.172E+01    0.660E-01
RMM:   2    -0.213121507742E+02   -0.32712E-03   -0.25130E-02    48   0.168E+00    0.385E-01
RMM:   3    -0.213117060080E+02    0.44477E-03   -0.18264E-03    49   0.569E-01    0.202E-01
RMM:   4    -0.213118057053E+02   -0.99697E-04   -0.55047E-04    52   0.234E-01    0.819E-02
RMM:   5    -0.213127290829E+02   -0.92338E-03   -0.10133E-04    49   0.812E-02    0.315E-02
RMM:   6    -0.213133128444E+02   -0.58376E-03   -0.41973E-05    49   0.533E-02    0.133E-02
RMM:   7    -0.213135657042E+02   -0.25286E-03   -0.90417E-06    40   0.246E-02    0.478E-03
RMM:   8    -0.213137240735E+02   -0.15837E-03   -0.18224E-06    36   0.133E-02    0.230E-03
RMM:   9    -0.213138997527E+02   -0.17568E-03   -0.15092E-06    35   0.958E-03    0.147E-03
RMM:  10    -0.213140392643E+02   -0.13951E-03   -0.15617E-06    36   0.802E-03    0.833E-04
RMM:  11    -0.213141308582E+02   -0.91594E-04   -0.10793E-06    35   0.686E-03    0.692E-04
RMM:  12    -0.213142236687E+02   -0.92811E-04   -0.12912E-06    35   0.649E-03    0.644E-04
RMM:  13    -0.213143034112E+02   -0.79743E-04   -0.14668E-06    36   0.699E-03    0.338E-04
RMM:  14    -0.213143288109E+02   -0.25400E-04   -0.45505E-07    29   0.553E-03    0.325E-04
RMM:  15    -0.213143405710E+02   -0.11760E-04   -0.23403E-07    28   0.473E-03    0.212E-04
RMM:  16    -0.213143558758E+02   -0.15305E-04   -0.20930E-07    24   0.366E-03    0.157E-04
RMM:  17    -0.213143633945E+02   -0.75187E-05   -0.13114E-07    24   0.374E-03    0.109E-04
RMM:  18    -0.213143674231E+02   -0.40286E-05   -0.79296E-08    22   0.283E-03    0.955E-05
RMM:  19    -0.213143716950E+02   -0.42719E-05   -0.58676E-08    22   0.263E-03    0.432E-05
RMM:  20    -0.213143734035E+02   -0.17085E-05   -0.33121E-08    22   0.227E-03    0.636E-05
RMM:  21    -0.213143745798E+02   -0.11763E-05   -0.18478E-08    21   0.195E-03    0.292E-05
RMM:  22    -0.213143751171E+02   -0.53729E-06   -0.93419E-09    19   0.171E-03
 134 F= -.21322864E+02 E0= -.21322864E+02  d E =-.682691E-01  mag=     1.0000
       N       E                     dE             d eps       ncg     rms          rms(c)
DAV:   1    -0.213142715165E+02    0.10306E-03   -0.23841E-01    84   0.638E+00    0.237E-01
RMM:   2    -0.213141020300E+02    0.16949E-03   -0.24919E-03    48   0.506E-01    0.135E-01
RMM:   3    -0.213139118910E+02    0.19014E-03   -0.19677E-04    48   0.177E-01    0.680E-02
RMM:   4    -0.213139368416E+02   -0.24951E-04   -0.62321E-05    50   0.838E-02    0.254E-02
RMM:   5    -0.213141216336E+02   -0.18479E-03   -0.13748E-05    43   0.299E-02    0.101E-02
RMM:   6    -0.213142640586E+02   -0.14242E-03   -0.93138E-06    41   0.199E-02    0.466E-03
RMM:   7    -0.213143181274E+02   -0.54069E-04   -0.12061E-06    34   0.110E-02    0.189E-03
RMM:   8    -0.213143537820E+02   -0.35655E-04   -0.36832E-07    33   0.745E-03    0.123E-03
RMM:   9    -0.213143868375E+02   -0.33055E-04   -0.24379E-07    33   0.507E-03    0.752E-04
RMM:  10    -0.213144243459E+02   -0.37508E-04   -0.29293E-07    32   0.444E-03    0.362E-04
RMM:  11    -0.213144440711E+02   -0.19725E-04   -0.21795E-07    29   0.430E-03    0.305E-04
RMM:  12    -0.213144650497E+02   -0.20979E-04   -0.24247E-07    27   0.370E-03    0.237E-04
RMM:  13    -0.213144941131E+02   -0.29063E-04   -0.40705E-07    29   0.422E-03    0.187E-04
RMM:  14    -0.213145014999E+02   -0.73868E-05   -0.22418E-07    25   0.463E-03    0.123E-04
RMM:  15    -0.213145060750E+02   -0.45752E-05   -0.15292E-07    22   0.300E-03    0.105E-04
RMM:  16    -0.213145101367E+02   -0.40617E-05   -0.10428E-07    22   0.315E-03    0.718E-05
RMM:  17    -0.213145117421E+02   -0.16054E-05   -0.69373E-08    20   0.248E-03    0.529E-05
RMM:  18    -0.213145125467E+02   -0.80460E-06   -0.40372E-08    20   0.240E-03
 135 F= -.21323085E+02 E0= -.21323085E+02  d E =-.684903E-01  mag=     1.0000
       N       E                     dE             d eps       ncg     rms          rms(c)
DAV:   1    -0.213149222759E+02   -0.41053E-03   -0.58345E-02    96   0.316E+00    0.118E-01
RMM:   2    -0.213148221629E+02    0.10011E-03   -0.54689E-04    48   0.229E-01    0.656E-02
RMM:   3    -0.213147456735E+02    0.76489E-04   -0.47679E-05    48   0.772E-02    0.317E-02
RMM:   4    -0.213147520942E+02   -0.64208E-05   -0.14952E-05    48   0.436E-02    0.112E-02
RMM:   5    -0.213148181268E+02   -0.66033E-04   -0.40847E-06    40   0.148E-02    0.495E-03
RMM:   6    -0.213148773950E+02   -0.59268E-04   -0.30760E-06    38   0.119E-02    0.201E-03
RMM:   7    -0.213148965742E+02   -0.19179E-04   -0.39773E-07    33   0.796E-03    0.102E-03
RMM:   8    -0.213149093074E+02   -0.12733E-04   -0.15911E-07    32   0.471E-03    0.618E-04
RMM:   9    -0.213149240206E+02   -0.14713E-04   -0.12430E-07    31   0.355E-03    0.359E-04
RMM:  10    -0.213149388416E+02   -0.14821E-04   -0.13493E-07    26   0.316E-03    0.182E-04
RMM:  11    -0.213149446920E+02   -0.58504E-05   -0.74862E-08    22   0.302E-03    0.161E-04
RMM:  12    -0.213149486190E+02   -0.39270E-05   -0.52324E-08    21   0.244E-03    0.135E-04
RMM:  13    -0.213149570684E+02   -0.84494E-05   -0.76923E-08    23   0.250E-03    0.114E-04
RMM:  14    -0.213149659472E+02   -0.88787E-05   -0.10305E-07    22   0.270E-03    0.116E-04
RMM:  15    -0.213149675714E+02   -0.16242E-05   -0.52018E-08    21   0.296E-03    0.591E-05
RMM:  16    -0.213149689815E+02   -0.14101E-05   -0.34242E-08    21   0.207E-03    0.567E-05
RMM:  17    -0.213149699449E+02   -0.96341E-06   -0.21528E-08    21   0.215E-03
 136 F= -.21323501E+02 E0= -.21323501E+02  d E =-.415449E-03  mag=     1.0000
       N       E                     dE             d eps       ncg     rms          rms(c)
DAV:   1    -0.213147848981E+02    0.18408E-03   -0.50964E-01    72   0.937E+00    0.351E-01
RMM:   2    -0.213147622733E+02    0.22625E-04   -0.77620E-03    48   0.913E-01    0.198E-01
RMM:   3    -0.213145184073E+02    0.24387E-03   -0.63215E-04    48   0.325E-01    0.991E-02
RMM:   4    -0.213144918663E+02    0.26541E-04   -0.19812E-04    53   0.148E-01    0.397E-02
RMM:   5    -0.213148745454E+02   -0.38268E-03   -0.29043E-05    48   0.533E-02    0.176E-02
RMM:   6    -0.213150878083E+02   -0.21326E-03   -0.14743E-05    42   0.280E-02    0.755E-03
RMM:   7    -0.213152092411E+02   -0.12143E-03   -0.37540E-06    38   0.153E-02    0.244E-03
RMM:   8    -0.213152753514E+02   -0.66110E-04   -0.67222E-07    33   0.960E-03    0.135E-03
RMM:   9    -0.213153267724E+02   -0.51421E-04   -0.48703E-07    33   0.646E-03    0.873E-04
RMM:  10    -0.213153910541E+02   -0.64282E-04   -0.75382E-07    34   0.598E-03    0.630E-04
RMM:  11    -0.213154280924E+02   -0.37038E-04   -0.42139E-07    32   0.531E-03    0.455E-04
RMM:  12    -0.213154617828E+02   -0.33690E-04   -0.41526E-07    29   0.473E-03    0.380E-04
RMM:  13    -0.213155062985E+02   -0.44516E-04   -0.61391E-07    29   0.551E-03    0.315E-04
RMM:  14    -0.213155319908E+02   -0.25692E-04   -0.51845E-07    29   0.590E-03    0.206E-04
RMM:  15    -0.213155391014E+02   -0.71106E-05   -0.27136E-07    23   0.506E-03    0.158E-04
RMM:  16    -0.213155459964E+02   -0.68950E-05   -0.18043E-07    22   0.370E-03    0.110E-04
RMM:  17    -0.213155505710E+02   -0.45746E-05   -0.11594E-07    22   0.350E-03    0.101E-04
RMM:  18    -0.213155523963E+02   -0.18253E-05   -0.68744E-08    22   0.281E-03    0.502E-05
RMM:  19    -0.213155541712E+02   -0.17749E-05   -0.43044E-08    22   0.246E-03    0.557E-05
RMM:  20    -0.213155555133E+02   -0.13421E-05   -0.27405E-08    22   0.212E-03    0.352E-05
RMM:  21    -0.213155561543E+02   -0.64093E-06   -0.14700E-08    19   0.192E-03
 137 F= -.21323965E+02 E0= -.21323965E+02  d E =-.879917E-03  mag=     1.0000
       N       E                     dE             d eps       ncg     rms          rms(c)
DAV:   1    -0.213163285153E+02   -0.77300E-03   -0.68512E-04    96   0.341E-01    0.130E-02
RMM:   2    -0.213163257586E+02    0.27567E-05   -0.86720E-06    46   0.296E-02    0.570E-03
RMM:   3    -0.213163221156E+02    0.36431E-05   -0.70236E-07    33   0.103E-02    0.246E-03
RMM:   4    -0.213163207246E+02    0.13910E-05   -0.25849E-07    32   0.774E-03    0.918E-04
RMM:   5    -0.213163219773E+02   -0.12528E-05   -0.10889E-07    31   0.426E-03    0.373E-04
RMM:   6    -0.213163238741E+02   -0.18968E-05   -0.49206E-08    26   0.280E-03    0.259E-04
RMM:   7    -0.213163253257E+02   -0.14516E-05   -0.26144E-08    20   0.196E-03    0.182E-04
RMM:   8    -0.213163265573E+02   -0.12316E-05   -0.23497E-08    24   0.178E-03    0.712E-05
RMM:   9    -0.213163269520E+02   -0.39469E-06   -0.73499E-09    19   0.159E-03
 138 F= -.21324732E+02 E0= -.21324732E+02  d E =-.766504E-03  mag=     1.0000
       N       E                     dE             d eps       ncg     rms          rms(c)
DAV:   1    -0.213186189190E+02   -0.22924E-02   -0.61536E-03    84   0.102E+00    0.402E-02
RMM:   2    -0.213186057191E+02    0.13200E-04   -0.92333E-05    48   0.990E-02    0.172E-02
RMM:   3    -0.213185837020E+02    0.22017E-04   -0.76160E-06    45   0.314E-02    0.762E-03
RMM:   4    -0.213185769647E+02    0.67374E-05   -0.13408E-06    33   0.150E-02    0.282E-03
RMM:   5    -0.213185857205E+02   -0.87559E-05   -0.71360E-07    33   0.949E-03    0.107E-03
RMM:   6    -0.213185966083E+02   -0.10888E-04   -0.44159E-07    33   0.679E-03    0.853E-04
RMM:   7    -0.213186032933E+02   -0.66850E-05   -0.22041E-07    33   0.509E-03    0.446E-04
RMM:   8    -0.213186087832E+02   -0.54899E-05   -0.14054E-07    28   0.365E-03    0.232E-04
RMM:   9    -0.213186121639E+02   -0.33806E-05   -0.70010E-08    24   0.307E-03    0.138E-04
RMM:  10    -0.213186142305E+02   -0.20667E-05   -0.37816E-08    21   0.226E-03    0.962E-05
RMM:  11    -0.213186169130E+02   -0.26825E-05   -0.31331E-08    20   0.206E-03    0.903E-05
RMM:  12    -0.213186198153E+02   -0.29023E-05   -0.32819E-08    21   0.206E-03    0.687E-05
RMM:  13    -0.213186208423E+02   -0.10270E-05   -0.18833E-08    20   0.199E-03    0.584E-05
RMM:  14    -0.213186228083E+02   -0.19660E-05   -0.21614E-08    20   0.174E-03    0.421E-05
RMM:  15    -0.213186239939E+02   -0.11856E-05   -0.15947E-08    20   0.192E-03    0.338E-05
RMM:  16    -0.213186246006E+02   -0.60663E-06   -0.10453E-08    19   0.171E-03
 139 F= -.21327016E+02 E0= -.21327016E+02  d E =-.305130E-02  mag=     1.0000
       N       E                     dE             d eps       ncg     rms          rms(c)
DAV:   1    -0.213230898679E+02   -0.44659E-02   -0.24499E-02    72   0.204E+00    0.804E-02
RMM:   2    -0.213230742740E+02    0.15594E-04   -0.45494E-04    48   0.219E-01    0.354E-02
RMM:   3    -0.213230203325E+02    0.53942E-04   -0.43200E-05    50   0.730E-02    0.168E-02
RMM:   4    -0.213230079773E+02    0.12355E-04   -0.71774E-06    43   0.254E-02    0.894E-03
RMM:   5    -0.213230207590E+02   -0.12782E-04   -0.15973E-06    35   0.128E-02    0.335E-03
RMM:   6    -0.213230457092E+02   -0.24950E-04   -0.15178E-06    36   0.955E-03    0.170E-03
RMM:   7    -0.213230671294E+02   -0.21420E-04   -0.73429E-07    33   0.765E-03    0.736E-04
RMM:   8    -0.213230762305E+02   -0.91011E-05   -0.27796E-07    33   0.605E-03    0.439E-04
RMM:   9    -0.213230843084E+02   -0.80779E-05   -0.15280E-07    29   0.388E-03    0.305E-04
RMM:  10    -0.213230949387E+02   -0.10630E-04   -0.13007E-07    27   0.350E-03    0.203E-04
RMM:  11    -0.213231038325E+02   -0.88938E-05   -0.13549E-07    25   0.323E-03    0.131E-04
RMM:  12    -0.213231076955E+02   -0.38630E-05   -0.80914E-08    22   0.311E-03    0.105E-04
RMM:  13    -0.213231114474E+02   -0.37519E-05   -0.65242E-08    21   0.248E-03    0.988E-05
RMM:  14    -0.213231164672E+02   -0.50197E-05   -0.67199E-08    21   0.259E-03    0.839E-05
RMM:  15    -0.213231199376E+02   -0.34705E-05   -0.64758E-08    22   0.246E-03    0.692E-05
RMM:  16    -0.213231205581E+02   -0.62043E-06   -0.35205E-08    21   0.243E-03
 140 F= -.21331487E+02 E0= -.21331487E+02  d E =-.752166E-02  mag=     1.0000
       N       E                     dE             d eps       ncg     rms          rms(c)
DAV:   1    -0.213316036646E+02   -0.84837E-02   -0.98116E-02    72   0.409E+00    0.161E-01
RMM:   2    -0.213316030376E+02    0.62701E-06   -0.18280E-03    48   0.438E-01    0.712E-02
RMM:   3    -0.213314287908E+02    0.17425E-03   -0.17091E-04    50   0.147E-01    0.338E-02
RMM:   4    -0.213314070635E+02    0.21727E-04   -0.29959E-05    52   0.505E-02    0.175E-02
RMM:   5    -0.213314558498E+02   -0.48786E-04   -0.64814E-06    42   0.219E-02    0.706E-03
RMM:   6    -0.213315336399E+02   -0.77790E-04   -0.44922E-06    38   0.167E-02    0.331E-03
RMM:   7    -0.213315938426E+02   -0.60203E-04   -0.28855E-06    38   0.125E-02    0.110E-03
RMM:   8    -0.213316189102E+02   -0.25068E-04   -0.44040E-07    33   0.784E-03    0.782E-04
RMM:   9    -0.213316374440E+02   -0.18534E-04   -0.27609E-07    33   0.595E-03    0.594E-04
RMM:  10    -0.213316610289E+02   -0.23585E-04   -0.27999E-07    31   0.459E-03    0.415E-04
RMM:  11    -0.213316935717E+02   -0.32543E-04   -0.47415E-07    32   0.507E-03    0.351E-04
RMM:  12    -0.213316992105E+02   -0.56388E-05   -0.20535E-07    27   0.500E-03    0.188E-04
RMM:  13    -0.213317084451E+02   -0.92346E-05   -0.17231E-07    22   0.288E-03    0.190E-04
RMM:  14    -0.213317212318E+02   -0.12787E-04   -0.15287E-07    25   0.363E-03    0.115E-04
RMM:  15    -0.213317288606E+02   -0.76289E-05   -0.14557E-07    22   0.307E-03    0.948E-05
RMM:  16    -0.213317315016E+02   -0.26409E-05   -0.86156E-08    23   0.328E-03    0.782E-05
RMM:  17    -0.213317330921E+02   -0.15906E-05   -0.55989E-08    21   0.230E-03    0.513E-05
RMM:  18    -0.213317349919E+02   -0.18997E-05   -0.39131E-08    21   0.242E-03    0.443E-05
RMM:  19    -0.213317354974E+02   -0.50554E-06   -0.26506E-08    21   0.202E-03
 141 F= -.21340051E+02 E0= -.21340051E+02  d E =-.160859E-01  mag=     1.0000
       N       E                     dE             d eps       ncg     rms          rms(c)
DAV:   1    -0.213468867134E+02   -0.15152E-01   -0.39340E-01    72   0.818E+00    0.325E-01
RMM:   2    -0.213470490330E+02   -0.16232E-03   -0.74384E-03    48   0.886E-01    0.143E-01
RMM:   3    -0.213464882291E+02    0.56080E-03   -0.68989E-04    50   0.297E-01    0.675E-02
RMM:   4    -0.213464572200E+02    0.31009E-04   -0.12296E-04    51   0.103E-01    0.357E-02
RMM:   5    -0.213466386190E+02   -0.18140E-03   -0.27340E-05    49   0.458E-02    0.149E-02
RMM:   6    -0.213468749585E+02   -0.23634E-03   -0.16693E-05    43   0.285E-02    0.727E-03
RMM:   7    -0.213470567193E+02   -0.18176E-03   -0.10032E-05    42   0.195E-02    0.239E-03
RMM:   8    -0.213471094743E+02   -0.52755E-04   -0.68954E-07    33   0.104E-02    0.164E-03
RMM:   9    -0.213471734688E+02   -0.63994E-04   -0.63016E-07    33   0.729E-03    0.110E-03
RMM:  10    -0.213472501021E+02   -0.76633E-04   -0.93041E-07    34   0.722E-03    0.771E-04
RMM:  11    -0.213473065403E+02   -0.56438E-04   -0.93601E-07    34   0.666E-03    0.515E-04
RMM:  12    -0.213473308355E+02   -0.24295E-04   -0.38908E-07    30   0.605E-03    0.366E-04
RMM:  13    -0.213473764440E+02   -0.45609E-04   -0.72133E-07    29   0.533E-03    0.352E-04
RMM:  14    -0.213474002679E+02   -0.23824E-04   -0.44698E-07    29   0.620E-03    0.194E-04
RMM:  15    -0.213474105699E+02   -0.10302E-04   -0.30271E-07    25   0.466E-03    0.161E-04
RMM:  16    -0.213474170814E+02   -0.65115E-05   -0.20791E-07    23   0.431E-03    0.128E-04
RMM:  17    -0.213474207074E+02   -0.36261E-05   -0.13615E-07    23   0.351E-03    0.864E-05
RMM:  18    -0.213474238438E+02   -0.31363E-05   -0.89808E-08    22   0.311E-03    0.588E-05
RMM:  19    -0.213474255054E+02   -0.16616E-05   -0.54457E-08    22   0.265E-03    0.676E-05
RMM:  20    -0.213474266666E+02   -0.11613E-05   -0.34501E-08    23   0.229E-03    0.405E-05
RMM:  21    -0.213474271010E+02   -0.43436E-06   -0.16700E-08    19   0.190E-03
 142 F= -.21355643E+02 E0= -.21355643E+02  d E =-.316779E-01  mag=     1.0000
       N       E                     dE             d eps       ncg     rms          rms(c)
DAV:   1    -0.213690867749E+02   -0.21660E-01   -0.15694E+00    48   0.164E+01    0.682E-01
