<?xml version="1.0" encoding="ISO-8859-1"?>
<modeling>
 <generator>
  <i name="program" type="string">vasp </i>
  <i name="version" type="string">5.4.4.18Apr17-6-g9f103f2a35  </i>
  <i name="subversion" type="string">(build May 21 2019 18:55:53) complex            parallel </i>
  <i name="platform" type="string">IFC19_impi </i>
  <i name="date" type="string">2025 08 26 </i>
  <i name="time" type="string">20:46:40 </i>
 </generator>
 <incar>
  <i type="string" name="SYSTEM"> Co–organic framework</i>
  <i type="string" name="PREC">accurate   (precision level)</i>
  <i type="string" name="ALGO"> Fast       (SCF minimisation algorithm</i>
  <i type="int" name="ISPIN">     2</i>
  <i type="int" name="NELM">   100</i>
  <i type="int" name="NELMIN">     5</i>
  <i type="int" name="IBRION">     2</i>
  <i name="EDIFF">      0.00000100</i>
  <i name="EDIFFG">     -0.00500000</i>
  <i type="int" name="NSW">  1000</i>
  <i type="int" name="ISIF">     3</i>
  <i type="int" name="ISYM">     0</i>
  <i type="int" name="NBLOCK">     1</i>
  <i name="ENCUT">    520.00000000</i>
  <v name="MAGMOM">      0.00000000      0.00000000      0.00000000      0.00000000</v>
  <i type="string" name="LREAL"> Auto       (Projection operators: autom</i>
  <i type="int" name="ISMEAR">     0</i>
  <i name="SIGMA">      0.05000000</i>
  <i type="logical" name="LWAVE"> F  </i>
  <i type="logical" name="LCHARG"> T  </i>
  <v type="int" name="KPOINT_BSE">    -1     0     0     0</v>
  <i type="int" name="NELM">   100</i>
 </incar>
 <structure name="primitive_cell" >
  <crystal>
   <varray name="basis" >
    <v>       6.78400874       0.48928330       0.01526858 </v>
    <v>       0.35355251       8.13737084       0.01794226 </v>
    <v>       0.01664917       0.02272787       6.91274107 </v>
   </varray>
   <i name="volume">    380.41053989 </i>
   <varray name="rec_basis" >
    <v>       0.14786954      -0.00642390      -0.00033502 </v>
    <v>      -0.00889024       0.12327693      -0.00038390 </v>
    <v>      -0.00030353      -0.00030578       0.14466215 </v>
   </varray>
  </crystal>
  <varray name="positions" >
   <v>       0.30073650      -0.39992482      -0.49934292 </v>
   <v>       0.28713521      -0.25292486      -0.49558121 </v>
   <v>       0.26360045       0.43453207       0.49197294 </v>
   <v>       0.41637606       0.37048722      -0.49704881 </v>
  </varray>
 </structure>
 <varray name="primitive_index" >
  <v type="int" >        1 </v>
  <v type="int" >        2 </v>
  <v type="int" >        3 </v>
  <v type="int" >        4 </v>
 </varray>
 <kpoints>
  <generation param="Gamma">
   <v type="int" name="divisions">       1        1        1 </v>
   <v name="usershift">      0.00000000       0.00000000       0.00000000 </v>
   <v name="genvec1">      1.00000000       0.00000000       0.00000000 </v>
   <v name="genvec2">     -0.00000000       1.00000000       0.00000000 </v>
   <v name="genvec3">     -0.00000000       0.00000000       1.00000000 </v>
   <v name="shift">      0.00000000       0.00000000       0.00000000 </v>
  </generation>
  <varray name="kpointlist" >
   <v>       0.00000000       0.00000000       0.00000000 </v>
  </varray>
  <varray name="weights" >
   <v>       1.00000000 </v>
  </varray>
 </kpoints>
 <parameters>
  <separator name="general" >
   <i type="string" name="SYSTEM">Co–organic framework</i>
   <i type="logical" name="LCOMPAT"> F  </i>
  </separator>
  <separator name="electronic" >
   <i type="string" name="PREC">accura</i>
   <i name="ENMAX">    520.00000000</i>
   <i name="ENAUG">   1213.93000000</i>
   <i name="EDIFF">      0.00000100</i>
   <i type="int" name="IALGO">    68</i>
   <i type="int" name="IWAVPR">    11</i>
   <i type="int" name="NBANDS">    12</i>
   <i name="NELECT">     15.00000000</i>
   <i type="int" name="TURBO">     0</i>
   <i type="int" name="IRESTART">     0</i>
   <i type="int" name="NREBOOT">     0</i>
   <i type="int" name="NMIN">     0</i>
   <i name="EREF">      0.00000000</i>
   <separator name="electronic smearing" >
    <i type="int" name="ISMEAR">     0</i>
    <i name="SIGMA">      0.05000000</i>
    <i name="KSPACING">      0.50000000</i>
    <i type="logical" name="KGAMMA"> T  </i>
   </separator>
   <separator name="electronic projectors" >
    <i type="logical" name="LREAL"> T  </i>
    <v name="ROPT">     -0.00025000     -0.00025000     -0.00025000</v>
    <i type="int" name="LMAXPAW">  -100</i>
    <i type="int" name="LMAXMIX">     2</i>
    <i type="logical" name="NLSPLINE"> F  </i>
   </separator>
   <separator name="electronic startup" >
    <i type="int" name="ISTART">     0</i>
    <i type="int" name="ICHARG">     2</i>
    <i type="int" name="INIWAV">     1</i>
   </separator>
   <separator name="electronic spin" >
    <i type="int" name="ISPIN">     2</i>
    <i type="logical" name="LNONCOLLINEAR"> F  </i>
    <v name="MAGMOM">      0.00000000      0.00000000      0.00000000      0.00000000</v>
    <i name="NUPDOWN">     -1.00000000</i>
    <i type="logical" name="LSORBIT"> F  </i>
    <v name="SAXIS">      0.00000000      0.00000000      1.00000000</v>
    <i type="logical" name="LSPIRAL"> F  </i>
    <v name="QSPIRAL">      0.00000000      0.00000000      0.00000000</v>
    <i type="logical" name="LZEROZ"> F  </i>
   </separator>
   <separator name="electronic exchange-correlation" >
    <i type="logical" name="LASPH"> F  </i>
    <i type="logical" name="LMETAGGA"> F  </i>
   </separator>
   <separator name="electronic convergence" >
    <i type="int" name="NELM">   100</i>
    <i type="int" name="NELMDL">     0</i>
    <i type="int" name="NELMIN">     5</i>
    <i name="ENINI">    520.00000000</i>
    <separator name="electronic convergence detail" >
     <i type="logical" name="LDIAG"> T  </i>
     <i type="logical" name="LSUBROT"> F  </i>
     <i name="WEIMIN">      0.00100000</i>
     <i name="EBREAK">      0.00000002</i>
     <i name="DEPER">      0.30000000</i>
     <i type="int" name="NRMM">     4</i>
     <i name="TIME">      0.40000000</i>
    </separator>
   </separator>
   <separator name="electronic mixer" >
    <i name="AMIX">      0.40000000</i>
    <i name="BMIX">      1.00000000</i>
    <i name="AMIN">      0.10000000</i>
    <i name="AMIX_MAG">      1.60000000</i>
    <i name="BMIX_MAG">      1.00000000</i>
    <separator name="electronic mixer details" >
     <i type="int" name="IMIX">     4</i>
     <i type="logical" name="MIXFIRST"> F  </i>
     <i type="int" name="MAXMIX">   -45</i>
     <i name="WC">    100.00000000</i>
     <i type="int" name="INIMIX">     1</i>
     <i type="int" name="MIXPRE">     1</i>
     <i type="int" name="MREMOVE">     5</i>
    </separator>
   </separator>
   <separator name="electronic dipolcorrection" >
    <i type="logical" name="LDIPOL"> F  </i>
    <i type="logical" name="LMONO"> F  </i>
    <i type="int" name="IDIPOL">     0</i>
    <i name="EPSILON">      1.00000000</i>
    <v name="DIPOL">   -100.00000000   -100.00000000   -100.00000000</v>
    <i name="EFIELD">      0.00000000</i>
   </separator>
  </separator>
  <separator name="grids" >
   <i type="int" name="NGX">    54</i>
   <i type="int" name="NGY">    64</i>
   <i type="int" name="NGZ">    54</i>
   <i type="int" name="NGXF">   108</i>
   <i type="int" name="NGYF">   128</i>
   <i type="int" name="NGZF">   108</i>
   <i type="logical" name="ADDGRID"> F  </i>
  </separator>
  <separator name="ionic" >
   <i type="int" name="NSW">  1000</i>
   <i type="int" name="IBRION">     2</i>
   <i type="int" name="MDALGO">     0</i>
   <i type="int" name="ISIF">     3</i>
   <i name="PSTRESS">      0.00000000</i>
   <i name="EDIFFG">     -0.00500000</i>
   <i type="int" name="NFREE">     1</i>
   <i name="POTIM">      0.50000000</i>
   <i name="SMASS">     -3.00000000</i>
   <i name="SCALEE">      1.00000000</i>
  </separator>
  <separator name="ionic md" >
   <i name="TEBEG">      0.00010000</i>
   <i name="TEEND">      0.00010000</i>
   <i type="int" name="NBLOCK">     1</i>
   <i type="int" name="KBLOCK">  1000</i>
   <i type="int" name="NPACO">   256</i>
   <i name="APACO">     16.00000000</i>
  </separator>
  <separator name="symmetry" >
   <i type="int" name="ISYM">     0</i>
   <i name="SYMPREC">      0.00001000</i>
  </separator>
  <separator name="dos" >
   <i type="int" name="LORBIT">     0</i>
   <v name="RWIGS">     -1.00000000     -1.00000000     -1.00000000</v>
   <i type="int" name="NEDOS">   301</i>
   <i name="EMIN">     10.00000000</i>
   <i name="EMAX">    -10.00000000</i>
   <i name="EFERMI">      0.00000000</i>
  </separator>
  <separator name="writing" >
   <i type="int" name="NWRITE">     2</i>
   <i type="logical" name="LWAVE"> F  </i>
   <i type="logical" name="LDOWNSAMPLE"> F  </i>
   <i type="logical" name="LCHARG"> T  </i>
   <i type="logical" name="LPARD"> F  </i>
   <i type="logical" name="LVTOT"> F  </i>
   <i type="logical" name="LVHAR"> F  </i>
   <i type="logical" name="LELF"> F  </i>
   <i type="logical" name="LOPTICS"> F  </i>
   <v name="STM">      0.00000000      0.00000000      0.00000000      0.00000000      0.00000000      0.00000000      0.00000000</v>
  </separator>
  <separator name="performance" >
   <i type="int" name="NPAR">     6</i>
   <i type="int" name="NSIM">     4</i>
   <i type="int" name="NBLK">    -1</i>
   <i type="logical" name="LPLANE"> T  </i>
   <i type="logical" name="LSCALAPACK"> F  </i>
   <i type="logical" name="LSCAAWARE"> F  </i>
   <i type="logical" name="LSCALU"> F  </i>
   <i type="logical" name="LASYNC"> F  </i>
   <i type="logical" name="LORBITALREAL"> F  </i>
  </separator>
  <separator name="miscellaneous" >
   <i type="int" name="IDIOT">     3</i>
   <i type="int" name="ISPECIAL">     0</i>
   <i type="logical" name="LMUSIC"> F  </i>
   <v name="POMASS">     16.00000000     12.01100000      1.00000000</v>
   <v name="DARWINR">      0.00000000      0.00000000      0.00000000</v>
   <v name="DARWINV">      1.00000000      1.00000000      1.00000000</v>
   <i type="logical" name="LCORR"> T  </i>
  </separator>
  <i type="logical" name="GGA_COMPAT"> T  </i>
  <i type="logical" name="LBERRY"> F  </i>
  <i type="int" name="ICORELEVEL">     0</i>
  <i type="logical" name="LDAU"> F  </i>
  <i type="int" name="I_CONSTRAINED_M">     0</i>
  <separator name="electronic exchange-correlation" >
   <i type="string" name="GGA">--</i>
   <i type="int" name="VOSKOWN">     0</i>
   <i type="logical" name="LHFCALC"> F  </i>
   <i type="string" name="PRECFOCK"></i>
   <i type="logical" name="LSYMGRAD"> F  </i>
   <i type="logical" name="LHFONE"> F  </i>
   <i type="logical" name="LRHFCALC"> F  </i>
   <i type="logical" name="LTHOMAS"> F  </i>
   <i type="logical" name="LMODELHF"> F  </i>
   <i name="ENCUT4O">     -1.00000000</i>
   <i type="int" name="EXXOEP">     0</i>
   <i type="int" name="FOURORBIT">     0</i>
   <i name="AEXX">      0.00000000</i>
   <i name="HFALPHA">      0.00000000</i>
   <i name="MCALPHA">      0.00000000</i>
   <i name="ALDAX">      1.00000000</i>
   <i name="AGGAX">      1.00000000</i>
   <i name="ALDAC">      1.00000000</i>
   <i name="AGGAC">      1.00000000</i>
   <i type="int" name="NKREDX">     1</i>
   <i type="int" name="NKREDY">     1</i>
   <i type="int" name="NKREDZ">     1</i>
   <i type="logical" name="SHIFTRED"> F  </i>
   <i type="logical" name="ODDONLY"> F  </i>
   <i type="logical" name="EVENONLY"> F  </i>
   <i type="int" name="LMAXFOCK">     0</i>
   <i type="int" name="NMAXFOCKAE">     0</i>
   <i type="logical" name="LFOCKAEDFT"> F  </i>
   <i name="HFSCREEN">      0.00000000</i>
   <i name="HFSCREENC">      0.00000000</i>
   <i type="int" name="NBANDSGWLOW">     0</i>
  </separator>
  <separator name="vdW DFT" >
   <i type="logical" name="LUSE_VDW"> F  </i>
   <i name="Zab_VDW">     -0.84910000</i>
   <i name="PARAM1">      0.12340000</i>
   <i name="PARAM2">      1.00000000</i>
   <i name="PARAM3">      0.00000000</i>
  </separator>
  <separator name="model GW" >
   <i type="int" name="MODEL_GW">     0</i>
   <i name="MODEL_EPS0">     57.06158098</i>
   <i name="MODEL_ALPHA">      1.00000000</i>
  </separator>
  <separator name="linear response parameters" >
   <i type="logical" name="LEPSILON"> F  </i>
   <i type="logical" name="LRPA"> F  </i>
   <i type="logical" name="LNABLA"> F  </i>
   <i type="logical" name="LVEL"> F  </i>
   <i type="int" name="KINTER">     0</i>
   <i name="CSHIFT">      0.10000000</i>
   <i name="OMEGAMAX">     -1.00000000</i>
   <i name="DEG_THRESHOLD">      0.00200000</i>
   <i name="RTIME">     -0.10000000</i>
   <i name="WPLASMAI">      0.00000000</i>
   <v name="DFIELD">      0.00000000      0.00000000      0.00000000</v>
   <v name="WPLASMA">      0.00000000      0.00000000      0.00000000      0.00000000      0.00000000      0.00000000      0.00000000      0.00000000      0.00000000</v>
  </separator>
  <separator name="orbital magnetization" >
   <i type="logical" name="NUCIND"> F  </i>
   <v name="MAGPOS">      0.00000000      0.00000000      0.00000000</v>
   <i type="logical" name="LNICSALL"> T  </i>
   <i type="logical" name="ORBITALMAG"> F  </i>
   <i type="logical" name="LMAGBLOCH"> F  </i>
   <i type="logical" name="LCHIMAG"> F  </i>
   <i type="logical" name="LGAUGE"> T  </i>
   <i type="int" name="MAGATOM">     0</i>
   <v name="MAGDIPOL">      0.00000000      0.00000000      0.00000000</v>
   <v name="AVECCONST">      0.00000000      0.00000000      0.00000000</v>
  </separator>
  <separator name="response functions" >
   <i type="logical" name="LADDER"> F  </i>
   <i type="logical" name="LRPAFORCE"> F  </i>
   <i type="logical" name="LFXC"> F  </i>
   <i type="logical" name="LHARTREE"> T  </i>
   <i type="int" name="IBSE">     0</i>
   <v type="int" name="KPOINT">    -1     0     0     0</v>
   <i type="logical" name="LTCTE"> F  </i>
   <i type="logical" name="LTETE"> F  </i>
   <i type="logical" name="LTRIPLET"> F  </i>
   <i type="logical" name="LFXCEPS"> F  </i>
   <i type="logical" name="LFXHEG"> F  </i>
   <i type="int" name="NATURALO">     2</i>
   <i type="logical" name="L2ORDER"> F  </i>
   <i type="logical" name="LMP2LT"> F  </i>
   <i type="logical" name="LUSEW"> F  </i>
   <i name="ENCUTGW">     -2.00000000</i>
   <i name="ENCUTGWSOFT">     -2.00000000</i>
   <i name="ENCUTLF">     -1.00000000</i>
   <i type="int" name="LMAXMP2">    -1</i>
   <i name="SCISSOR">      0.00000000</i>
   <i type="int" name="NOMEGA">     0</i>
   <i type="int" name="NOMEGAR">     0</i>
   <i type="int" name="NBANDSGW">    -1</i>
   <i type="int" name="NBANDSO">    -1</i>
   <i type="int" name="NBANDSV">    -1</i>
   <i type="int" name="NELM">   100</i>
   <i type="int" name="NELMHF">     1</i>
   <i type="int" name="DIM">     3</i>
   <i type="int" name="ANTIRES">     0</i>
   <i name="OMEGAMAX">    -30.00000000</i>
   <i name="OMEGAMIN">    -30.00000000</i>
   <i name="OMEGATL">   -200.00000000</i>
   <i type="int" name="OMEGAGRID">   140</i>
   <i name="CSHIFT">     -0.10000000</i>
   <i type="logical" name="SELFENERGY"> F  </i>
   <i type="logical" name="LSPECTRAL"> F  </i>
   <i type="logical" name="LSPECTRALGW"> F  </i>
   <i type="logical" name="LSINGLES"> F  </i>
   <i type="logical" name="LFERMIGW"> F  </i>
   <i type="logical" name="ODDONLYGW"> F  </i>
   <i type="logical" name="EVENONLYGW"> F  </i>
   <i type="int" name="NKREDLFX">     1</i>
   <i type="int" name="NKREDLFY">     1</i>
   <i type="int" name="NKREDLFZ">     1</i>
   <i type="int" name="MAXMEM">  2800</i>
   <i type="int" name="TELESCOPE">     0</i>
   <i type="int" name="TAUPAR">     1</i>
   <i type="int" name="OMEGAPAR">    -1</i>
   <i name="LAMBDA">      1.00000000</i>
  </separator>
  <separator name="External order field" >
   <i name="OFIELD_KAPPA">      0.00000000</i>
   <v name="OFIELD_K">      0.00000000      0.00000000      0.00000000</v>
   <i name="OFIELD_Q6_NEAR">      0.00000000</i>
   <i name="OFIELD_Q6_FAR">      0.00000000</i>
   <i name="OFIELD_A">      0.00000000</i>
  </separator>
  <separator name="solvation model" >
   <i type="logical" name="LSOL"> F  </i>
  </separator>
 </parameters>
 <atominfo>
  <atoms>       4 </atoms>
  <types>       3 </types>
  <array name="atoms" >
   <dimension dim="1">ion</dimension>
   <field type="string">element</field>
   <field type="int">atomtype</field>
   <set>
    <rc><c>O </c><c>   1</c></rc>
    <rc><c>C </c><c>   2</c></rc>
    <rc><c>C </c><c>   2</c></rc>
    <rc><c>H </c><c>   3</c></rc>
   </set>
  </array>
  <array name="atomtypes" >
   <dimension dim="1">type</dimension>
   <field type="int">atomspertype</field>
   <field type="string">element</field>
   <field>mass</field>
   <field>valence</field>
   <field type="string">pseudopotential</field>
   <set>
    <rc><c>   1</c><c>O </c><c>     16.00000000</c><c>      6.00000000</c><c>  PAW_PBE O_GW_new 19Mar2012            </c></rc>
    <rc><c>   2</c><c>C </c><c>     12.01100000</c><c>      4.00000000</c><c>  PAW_PBE C_GW_new 19Mar2012            </c></rc>
    <rc><c>   1</c><c>H </c><c>      1.00000000</c><c>      1.00000000</c><c>  PAW_PBE H_h_GW 21Apr2008              </c></rc>
   </set>
  </array>
 </atominfo>
 <structure name="initialpos" >
  <crystal>
   <varray name="basis" >
    <v>       6.78400874       0.48928330       0.01526858 </v>
    <v>       0.35355251       8.13737084       0.01794226 </v>
    <v>       0.01664917       0.02272787       6.91274107 </v>
   </varray>
   <i name="volume">    380.41053989 </i>
   <varray name="rec_basis" >
    <v>       0.14786954      -0.00642390      -0.00033502 </v>
    <v>      -0.00889024       0.12327693      -0.00038390 </v>
    <v>      -0.00030353      -0.00030578       0.14466215 </v>
   </varray>
  </crystal>
  <varray name="positions" >
   <v>       0.30073650       0.60007518       0.50065708 </v>
   <v>       0.28713521       0.74707514       0.50441879 </v>
   <v>       0.26360045       0.43453207       0.49197294 </v>
   <v>       0.41637606       0.37048722       0.50295119 </v>
  </varray>
 </structure>
 <calculation>
  <scstep>
   <time name="dav">    0.04    0.04</time>
   <time name="total">    0.15    0.15</time>
   <energy>
    <i name="alphaZ">      0.84613485 </i>
    <i name="ewald">    126.04986524 </i>
    <i name="hartreedc">   -709.85196980 </i>
    <i name="XCdc">     40.35511537 </i>
    <i name="pawpsdc">    579.02360314 </i>
    <i name="pawaedc">   -567.32138021 </i>
    <i name="eentropy">     -0.00937430 </i>
    <i name="bandstr">    -68.51632762 </i>
    <i name="atom">    739.11087146 </i>
    <i name="e_fr_energy">    139.68653812 </i>
    <i name="e_wo_entrp">    139.69591241 </i>
    <i name="e_0_energy">    139.69122527 </i>
   </energy>
  </scstep>
  <scstep>
   <time name="dav">    0.04    0.05</time>
   <time name="total">    0.04    0.05</time>
   <energy>
    <i name="e_fr_energy">     14.35158181 </i>
    <i name="e_wo_entrp">     14.35158181 </i>
    <i name="e_0_energy">     14.35158181 </i>
   </energy>
  </scstep>
  <scstep>
   <time name="dav">    0.07    0.07</time>
   <time name="total">    0.07    0.07</time>
   <energy>
    <i name="e_fr_energy">    -21.94127240 </i>
    <i name="e_wo_entrp">    -21.92117054 </i>
    <i name="e_0_energy">    -21.93122147 </i>
   </energy>
  </scstep>
  <scstep>
   <time name="dav">    0.05    0.05</time>
   <time name="total">    0.05    0.05</time>
   <energy>
    <i name="e_fr_energy">    -22.37896595 </i>
    <i name="e_wo_entrp">    -22.35077231 </i>
    <i name="e_0_energy">    -22.36486913 </i>
   </energy>
  </scstep>
  <scstep>
   <time name="dav">    0.06    0.06</time>
   <time name="total">    0.07    0.07</time>
   <energy>
    <i name="e_fr_energy">    -22.38684499 </i>
    <i name="e_wo_entrp">    -22.35863551 </i>
    <i name="e_0_energy">    -22.37274025 </i>
   </energy>
  </scstep>
  <scstep>
   <time name="diag">    0.01    0.01</time>
   <time name="diis">    0.03    0.03</time>
   <time name="orth">    0.00    0.00</time>
   <time name="total">    0.15    0.15</time>
   <energy>
    <i name="e_fr_energy">    -21.32765380 </i>
    <i name="e_wo_entrp">    -21.29944432 </i>
    <i name="e_0_energy">    -21.31354906 </i>
   </energy>
  </scstep>
  <scstep>
   <time name="diag">    0.01    0.01</time>
   <time name="diis">    0.03    0.03</time>
   <time name="orth">    0.00    0.00</time>
   <time name="total">    0.15    0.15</time>
   <energy>
    <i name="e_fr_energy">    -21.09730975 </i>
    <i name="e_wo_entrp">    -21.06910061 </i>
    <i name="e_0_energy">    -21.08320518 </i>
   </energy>
  </scstep>
  <scstep>
   <time name="diag">    0.01    0.01</time>
   <time name="diis">    0.03    0.03</time>
   <time name="orth">    0.00    0.00</time>
   <time name="total">    0.15    0.15</time>
   <energy>
    <i name="e_fr_energy">    -21.00302785 </i>
    <i name="e_wo_entrp">    -20.97500730 </i>
    <i name="e_0_energy">    -20.98901758 </i>
   </energy>
  </scstep>
  <scstep>
   <time name="diag">    0.01    0.01</time>
   <time name="diis">    0.03    0.03</time>
   <time name="orth">    0.00    0.00</time>
   <time name="total">    0.15    0.15</time>
   <energy>
    <i name="e_fr_energy">    -21.08636159 </i>
    <i name="e_wo_entrp">    -21.08635136 </i>
    <i name="e_0_energy">    -21.08635648 </i>
   </energy>
  </scstep>
  <scstep>
   <time name="diag">    0.01    0.01</time>
   <time name="diis">    0.03    0.03</time>
   <time name="orth">    0.00    0.00</time>
   <time name="total">    0.15    0.15</time>
   <energy>
    <i name="e_fr_energy">    -21.01208345 </i>
    <i name="e_wo_entrp">    -21.00956736 </i>
    <i name="e_0_energy">    -21.01082540 </i>
   </energy>
  </scstep>
  <scstep>
   <time name="diag">    0.01    0.01</time>
   <time name="diis">    0.03    0.03</time>
   <time name="orth">    0.00    0.00</time>
   <time name="total">    0.15    0.15</time>
   <energy>
    <i name="e_fr_energy">    -21.16475727 </i>
    <i name="e_wo_entrp">    -21.16475727 </i>
    <i name="e_0_energy">    -21.16475727 </i>
   </energy>
  </scstep>
  <scstep>
   <time name="diag">    0.01    0.01</time>
   <time name="diis">    0.03    0.03</time>
   <time name="orth">    0.00    0.00</time>
   <time name="total">    0.15    0.15</time>
   <energy>
    <i name="e_fr_energy">    -21.37251277 </i>
    <i name="e_wo_entrp">    -21.37251277 </i>
    <i name="e_0_energy">    -21.37251277 </i>
   </energy>
  </scstep>
  <scstep>
   <time name="diag">    0.01    0.01</time>
   <time name="diis">    0.03    0.03</time>
   <time name="orth">    0.00    0.00</time>
   <time name="total">    0.15    0.15</time>
   <energy>
    <i name="e_fr_energy">    -21.41222279 </i>
    <i name="e_wo_entrp">    -21.41222279 </i>
    <i name="e_0_energy">    -21.41222279 </i>
   </energy>
  </scstep>
  <scstep>
   <time name="diag">    0.01    0.01</time>
   <time name="diis">    0.03    0.03</time>
   <time name="orth">    0.00    0.00</time>
   <time name="total">    0.15    0.15</time>
   <energy>
    <i name="e_fr_energy">    -21.41767180 </i>
    <i name="e_wo_entrp">    -21.41767180 </i>
    <i name="e_0_energy">    -21.41767180 </i>
   </energy>
  </scstep>
  <scstep>
   <time name="diag">    0.01    0.01</time>
   <time name="diis">    0.03    0.03</time>
   <time name="orth">    0.00    0.00</time>
   <time name="total">    0.15    0.15</time>
   <energy>
    <i name="e_fr_energy">    -21.42086539 </i>
    <i name="e_wo_entrp">    -21.42086539 </i>
    <i name="e_0_energy">    -21.42086539 </i>
   </energy>
  </scstep>
  <scstep>
   <time name="diag">    0.01    0.01</time>
   <time name="diis">    0.03    0.03</time>
   <time name="orth">    0.00    0.00</time>
   <time name="total">    0.15    0.15</time>
   <energy>
    <i name="e_fr_energy">    -21.42222230 </i>
    <i name="e_wo_entrp">    -21.42222230 </i>
    <i name="e_0_energy">    -21.42222230 </i>
   </energy>
  </scstep>
  <scstep>
   <time name="diag">    0.01    0.01</time>
   <time name="diis">    0.03    0.03</time>
   <time name="orth">    0.00    0.00</time>
   <time name="total">    0.15    0.15</time>
   <energy>
    <i name="e_fr_energy">    -21.42303538 </i>
    <i name="e_wo_entrp">    -21.42303538 </i>
    <i name="e_0_energy">    -21.42303538 </i>
   </energy>
  </scstep>
  <scstep>
   <time name="diag">    0.01    0.01</time>
   <time name="diis">    0.03    0.03</time>
   <time name="orth">    0.00    0.00</time>
   <time name="total">    0.15    0.15</time>
   <energy>
    <i name="e_fr_energy">    -21.42347775 </i>
    <i name="e_wo_entrp">    -21.42347775 </i>
    <i name="e_0_energy">    -21.42347775 </i>
   </energy>
  </scstep>
  <scstep>
   <time name="diag">    0.01    0.01</time>
   <time name="diis">    0.03    0.03</time>
   <time name="orth">    0.00    0.00</time>
   <time name="total">    0.15    0.15</time>
   <energy>
    <i name="e_fr_energy">    -21.42369004 </i>
    <i name="e_wo_entrp">    -21.42369004 </i>
    <i name="e_0_energy">    -21.42369004 </i>
   </energy>
  </scstep>
  <scstep>
   <time name="diag">    0.01    0.01</time>
   <time name="diis">    0.03    0.03</time>
   <time name="orth">    0.00    0.00</time>
   <time name="total">    0.15    0.15</time>
   <energy>
    <i name="e_fr_energy">    -21.42377763 </i>
    <i name="e_wo_entrp">    -21.42377763 </i>
    <i name="e_0_energy">    -21.42377763 </i>
   </energy>
  </scstep>
  <scstep>
   <time name="diag">    0.01    0.01</time>
   <time name="diis">    0.03    0.03</time>
   <time name="orth">    0.00    0.00</time>
   <time name="total">    0.15    0.15</time>
   <energy>
    <i name="e_fr_energy">    -21.42382706 </i>
    <i name="e_wo_entrp">    -21.42382706 </i>
    <i name="e_0_energy">    -21.42382706 </i>
   </energy>
  </scstep>
  <scstep>
   <time name="diag">    0.01    0.01</time>
   <time name="diis">    0.03    0.03</time>
   <time name="orth">    0.00    0.00</time>
   <time name="total">    0.15    0.15</time>
   <energy>
    <i name="e_fr_energy">    -21.42384224 </i>
    <i name="e_wo_entrp">    -21.42384224 </i>
    <i name="e_0_energy">    -21.42384224 </i>
   </energy>
  </scstep>
  <scstep>
   <time name="diag">    0.01    0.01</time>
   <time name="diis">    0.02    0.02</time>
   <time name="orth">    0.00    0.00</time>
   <time name="total">    0.14    0.14</time>
   <energy>
    <i name="e_fr_energy">    -21.42384986 </i>
    <i name="e_wo_entrp">    -21.42384986 </i>
    <i name="e_0_energy">    -21.42384986 </i>
   </energy>
  </scstep>
  <scstep>
   <time name="diag">    0.01    0.01</time>
   <time name="diis">    0.02    0.02</time>
   <time name="orth">    0.00    0.00</time>
   <time name="total">    0.15    0.15</time>
   <energy>
    <i name="e_fr_energy">    -21.42385380 </i>
    <i name="e_wo_entrp">    -21.42385380 </i>
    <i name="e_0_energy">    -21.42385380 </i>
   </energy>
  </scstep>
  <scstep>
   <time name="diag">    0.01    0.01</time>
   <time name="diis">    0.02    0.02</time>
   <time name="orth">    0.00    0.00</time>
   <time name="total">    0.14    0.14</time>
   <energy>
    <i name="e_fr_energy">    -21.42385618 </i>
    <i name="e_wo_entrp">    -21.42385618 </i>
    <i name="e_0_energy">    -21.42385618 </i>
   </energy>
  </scstep>
  <scstep>
   <time name="diag">    0.01    0.01</time>
   <time name="diis">    0.02    0.02</time>
   <time name="orth">    0.00    0.00</time>
   <time name="total">    0.13    0.13</time>
   <energy>
    <i name="alphaZ">      0.84613485 </i>
    <i name="ewald">    126.04986524 </i>
    <i name="hartreedc">   -732.78254794 </i>
    <i name="XCdc">     42.30371206 </i>
    <i name="pawpsdc">   1484.83173253 </i>
    <i name="pawaedc">  -1473.52088804 </i>
    <i name="eentropy">     -0.00000000 </i>
    <i name="bandstr">   -208.26273716 </i>
    <i name="atom">    739.11087146 </i>
    <i name="e_fr_energy">    -21.42385701 </i>
    <i name="e_wo_entrp">    -21.42385701 </i>
    <i name="e_0_energy">    -21.42385701 </i>
   </energy>
  </scstep>
  <structure>
   <crystal>
    <varray name="basis" >
     <v>       6.78400874       0.48928330       0.01526858 </v>
     <v>       0.35355251       8.13737084       0.01794226 </v>
     <v>       0.01664917       0.02272787       6.91274107 </v>
    </varray>
    <i name="volume">    380.41053989 </i>
    <varray name="rec_basis" >
     <v>       0.14786954      -0.00642390      -0.00033502 </v>
     <v>      -0.00889024       0.12327693      -0.00038390 </v>
     <v>      -0.00030353      -0.00030578       0.14466215 </v>
    </varray>
   </crystal>
   <varray name="positions" >
    <v>       0.30073650       0.60007518       0.50065708 </v>
    <v>       0.28713521       0.74707514       0.50441879 </v>
    <v>       0.26360045       0.43453207       0.49197294 </v>
    <v>       0.41637606       0.37048722       0.50295119 </v>
   </varray>
  </structure>
  <varray name="forces" >
   <v>      -0.02439920      -0.01914969      -0.00283171 </v>
   <v>       0.00676813       0.07255174       0.00555085 </v>
   <v>      -0.06904604       0.04979994      -0.00820153 </v>
   <v>       0.08667710      -0.10320199       0.00548239 </v>
  </varray>
  <varray name="stress" >
   <v>      -0.68890835      -0.24658247       0.04578681 </v>
   <v>      -0.24658232       0.38176038       0.00319220 </v>
   <v>       0.04578691       0.00319259      -1.16911721 </v>
  </varray>
  <energy>
   <i name="e_fr_energy">    -21.43799427 </i>
   <i name="e_wo_entrp">    -21.43799427 </i>
   <i name="e_0_energy">     -0.00000000 </i>
  </energy>
  <time name="totalsc">    6.56    6.78</time>
 </calculation>
 <calculation>
  <scstep>
   <time name="dav">    0.07    0.07</time>
   <time name="total">    0.18    0.19</time>
   <energy>
    <i name="alphaZ">      0.84972678 </i>
    <i name="ewald">    123.51449081 </i>
    <i name="hartreedc">   -732.48566572 </i>
    <i name="XCdc">     42.34728023 </i>
    <i name="pawpsdc">   1484.82502887 </i>
    <i name="pawaedc">  -1473.51418651 </i>
    <i name="eentropy">     -0.00000000 </i>
    <i name="bandstr">   -206.07609334 </i>
    <i name="atom">    739.11087146 </i>
    <i name="e_fr_energy">    -21.42854742 </i>
    <i name="e_wo_entrp">    -21.42854742 </i>
    <i name="e_0_energy">    -21.42854742 </i>
   </energy>
  </scstep>
  <scstep>
   <time name="diag">    0.01    0.01</time>
   <time name="diis">    0.03    0.03</time>
   <time name="orth">    0.00    0.00</time>
   <time name="total">    0.15    0.15</time>
   <energy>
    <i name="e_fr_energy">    -21.42476709 </i>
    <i name="e_wo_entrp">    -21.42476709 </i>
    <i name="e_0_energy">    -21.42476709 </i>
   </energy>
  </scstep>
  <scstep>
   <time name="diag">    0.01    0.01</time>
   <time name="diis">    0.03    0.03</time>
   <time name="orth">    0.00    0.00</time>
   <time name="total">    0.15    0.15</time>
   <energy>
    <i name="e_fr_energy">    -21.42408602 </i>
    <i name="e_wo_entrp">    -21.42408602 </i>
    <i name="e_0_energy">    -21.42408602 </i>
   </energy>
  </scstep>
  <scstep>
   <time name="diag">    0.01    0.01</time>
   <time name="diis">    0.03    0.03</time>
   <time name="orth">    0.00    0.00</time>
   <time name="total">    0.15    0.15</time>
   <energy>
    <i name="e_fr_energy">    -21.42426919 </i>
    <i name="e_wo_entrp">    -21.42426919 </i>
    <i name="e_0_energy">    -21.42426919 </i>
   </energy>
  </scstep>
  <scstep>
   <time name="diag">    0.01    0.01</time>
   <time name="diis">    0.03    0.03</time>
   <time name="orth">    0.00    0.00</time>
   <time name="total">    0.15    0.15</time>
   <energy>
    <i name="e_fr_energy">    -21.42433203 </i>
    <i name="e_wo_entrp">    -21.42433203 </i>
    <i name="e_0_energy">    -21.42433203 </i>
   </energy>
  </scstep>
  <scstep>
   <time name="diag">    0.01    0.01</time>
   <time name="diis">    0.03    0.03</time>
   <time name="orth">    0.00    0.00</time>
   <time name="total">    0.15    0.15</time>
   <energy>
    <i name="e_fr_energy">    -21.42437790 </i>
    <i name="e_wo_entrp">    -21.42437790 </i>
    <i name="e_0_energy">    -21.42437790 </i>
   </energy>
  </scstep>
  <scstep>
   <time name="diag">    0.01    0.01</time>
   <time name="diis">    0.03    0.03</time>
   <time name="orth">    0.00    0.00</time>
   <time name="total">    0.14    0.15</time>
   <energy>
    <i name="e_fr_energy">    -21.42439419 </i>
    <i name="e_wo_entrp">    -21.42439419 </i>
    <i name="e_0_energy">    -21.42439419 </i>
   </energy>
  </scstep>
  <scstep>
   <time name="diag">    0.01    0.01</time>
   <time name="diis">    0.03    0.03</time>
   <time name="orth">    0.00    0.00</time>
   <time name="total">    0.15    0.15</time>
   <energy>
    <i name="e_fr_energy">    -21.42441202 </i>
    <i name="e_wo_entrp">    -21.42441202 </i>
    <i name="e_0_energy">    -21.42441202 </i>
   </energy>
  </scstep>
  <scstep>
   <time name="diag">    0.01    0.01</time>
   <time name="diis">    0.03    0.03</time>
   <time name="orth">    0.00    0.00</time>
   <time name="total">    0.15    0.15</time>
   <energy>
    <i name="e_fr_energy">    -21.42443125 </i>
    <i name="e_wo_entrp">    -21.42443125 </i>
    <i name="e_0_energy">    -21.42443125 </i>
   </energy>
  </scstep>
  <scstep>
   <time name="diag">    0.01    0.01</time>
   <time name="diis">    0.02    0.02</time>
   <time name="orth">    0.00    0.00</time>
   <time name="total">    0.14    0.14</time>
   <energy>
    <i name="e_fr_energy">    -21.42443887 </i>
    <i name="e_wo_entrp">    -21.42443887 </i>
    <i name="e_0_energy">    -21.42443887 </i>
   </energy>
  </scstep>
  <scstep>
   <time name="diag">    0.01    0.01</time>
   <time name="diis">    0.02    0.02</time>
   <time name="orth">    0.00    0.00</time>
   <time name="total">    0.14    0.14</time>
   <energy>
    <i name="e_fr_energy">    -21.42444638 </i>
    <i name="e_wo_entrp">    -21.42444638 </i>
    <i name="e_0_energy">    -21.42444638 </i>
   </energy>
  </scstep>
  <scstep>
   <time name="diag">    0.01    0.01</time>
   <time name="diis">    0.03    0.03</time>
   <time name="orth">    0.00    0.00</time>
   <time name="total">    0.15    0.15</time>
   <energy>
    <i name="e_fr_energy">    -21.42445238 </i>
    <i name="e_wo_entrp">    -21.42445238 </i>
    <i name="e_0_energy">    -21.42445238 </i>
   </energy>
  </scstep>
  <scstep>
   <time name="diag">    0.01    0.01</time>
   <time name="diis">    0.02    0.02</time>
   <time name="orth">    0.00    0.00</time>
   <time name="total">    0.13    0.13</time>
   <energy>
    <i name="alphaZ">      0.84972678 </i>
    <i name="ewald">    123.51449081 </i>
    <i name="hartreedc">   -730.69037650 </i>
    <i name="XCdc">     42.25084508 </i>
    <i name="pawpsdc">   1475.96208900 </i>
    <i name="pawaedc">  -1464.64583582 </i>
    <i name="eentropy">     -0.00000000 </i>
    <i name="bandstr">   -207.77626396 </i>
    <i name="atom">    739.11087146 </i>
    <i name="e_fr_energy">    -21.42445315 </i>
    <i name="e_wo_entrp">    -21.42445315 </i>
    <i name="e_0_energy">    -21.42445315 </i>
   </energy>
  </scstep>
  <structure>
   <crystal>
    <varray name="basis" >
     <v>       6.77028202       0.48502804       0.01611142 </v>
     <v>       0.34711147       8.14601722       0.01800293 </v>
     <v>       0.01750664       0.02280416       6.88960036 </v>
    </varray>
    <i name="volume">    378.80248374 </i>
    <varray name="rec_basis" >
     <v>       0.14815740      -0.00631238      -0.00035558 </v>
     <v>      -0.00882064       0.12313609      -0.00038516 </v>
     <v>      -0.00032342      -0.00030700       0.14514814 </v>
    </varray>
   </crystal>
   <varray name="positions" >
    <v>       0.30056842       0.59997181       0.50063796 </v>
    <v>       0.28716092       0.74750362       0.50445636 </v>
    <v>       0.26309260       0.43485800       0.49191598 </v>
    <v>       0.41702627       0.36983618       0.50298970 </v>
   </varray>
  </structure>
  <varray name="forces" >
   <v>      -0.02382520       0.30406284       0.00624796 </v>
   <v>       0.01586506      -0.30359202      -0.00396926 </v>
   <v>       0.14895034      -0.02250881       0.00877201 </v>
   <v>      -0.14099020       0.02203799      -0.01105071 </v>
  </varray>
  <varray name="stress" >
   <v>      -1.61344661       0.29570460      -0.02712999 </v>
   <v>       0.29570489      -2.03695145      -0.01449314 </v>
   <v>      -0.02713012      -0.01449316      -1.12739357 </v>
  </varray>
  <energy>
   <i name="e_fr_energy">    -21.43868339 </i>
   <i name="e_wo_entrp">    -21.43868339 </i>
   <i name="e_0_energy">     -0.00000000 </i>
  </energy>
  <time name="totalsc">    2.30    2.30</time>
 </calculation>
 <calculation>
  <scstep>
   <time name="dav">    0.04    0.04</time>
   <time name="total">    0.15    0.16</time>
   <energy>
    <i name="alphaZ">      0.84846856 </i>
    <i name="ewald">    124.39757560 </i>
    <i name="hartreedc">   -730.79149248 </i>
    <i name="XCdc">     42.23553332 </i>
    <i name="pawpsdc">   1475.96173671 </i>
    <i name="pawaedc">  -1464.64548207 </i>
    <i name="eentropy">     -0.00000000 </i>
    <i name="bandstr">   -208.54241498 </i>
    <i name="atom">    739.11087146 </i>
    <i name="e_fr_energy">    -21.42520388 </i>
    <i name="e_wo_entrp">    -21.42520388 </i>
    <i name="e_0_energy">    -21.42520388 </i>
   </energy>
  </scstep>
  <scstep>
   <time name="diag">    0.01    0.01</time>
   <time name="diis">    0.03    0.03</time>
   <time name="orth">    0.00    0.00</time>
   <time name="total">    0.15    0.15</time>
   <energy>
    <i name="e_fr_energy">    -21.42484044 </i>
    <i name="e_wo_entrp">    -21.42484044 </i>
    <i name="e_0_energy">    -21.42484044 </i>
   </energy>
  </scstep>
  <scstep>
   <time name="diag">    0.01    0.01</time>
   <time name="diis">    0.03    0.03</time>
   <time name="orth">    0.00    0.00</time>
   <time name="total">    0.15    0.15</time>
   <energy>
    <i name="e_fr_energy">    -21.42475084 </i>
    <i name="e_wo_entrp">    -21.42475084 </i>
    <i name="e_0_energy">    -21.42475084 </i>
   </energy>
  </scstep>
  <scstep>
   <time name="diag">    0.01    0.01</time>
   <time name="diis">    0.03    0.03</time>
   <time name="orth">    0.00    0.00</time>
   <time name="total">    0.15    0.15</time>
   <energy>
    <i name="e_fr_energy">    -21.42474911 </i>
    <i name="e_wo_entrp">    -21.42474911 </i>
    <i name="e_0_energy">    -21.42474911 </i>
   </energy>
  </scstep>
  <scstep>
   <time name="diag">    0.01    0.01</time>
   <time name="diis">    0.03    0.03</time>
   <time name="orth">    0.00    0.00</time>
   <time name="total">    0.15    0.15</time>
   <energy>
    <i name="e_fr_energy">    -21.42475152 </i>
    <i name="e_wo_entrp">    -21.42475152 </i>
    <i name="e_0_energy">    -21.42475152 </i>
   </energy>
  </scstep>
  <scstep>
   <time name="diag">    0.01    0.01</time>
   <time name="diis">    0.02    0.03</time>
   <time name="orth">    0.00    0.00</time>
   <time name="total">    0.14    0.14</time>
   <energy>
    <i name="e_fr_energy">    -21.42475342 </i>
    <i name="e_wo_entrp">    -21.42475342 </i>
    <i name="e_0_energy">    -21.42475342 </i>
   </energy>
  </scstep>
  <scstep>
   <time name="diag">    0.01    0.01</time>
   <time name="diis">    0.02    0.02</time>
   <time name="orth">    0.00    0.00</time>
   <time name="total">    0.14    0.14</time>
   <energy>
    <i name="e_fr_energy">    -21.42475468 </i>
    <i name="e_wo_entrp">    -21.42475468 </i>
    <i name="e_0_energy">    -21.42475468 </i>
   </energy>
  </scstep>
  <scstep>
   <time name="diag">    0.01    0.01</time>
   <time name="diis">    0.02    0.02</time>
   <time name="orth">    0.00    0.00</time>
   <time name="total">    0.13    0.13</time>
   <energy>
    <i name="alphaZ">      0.84846856 </i>
    <i name="ewald">    124.39757560 </i>
    <i name="hartreedc">   -731.41531444 </i>
    <i name="XCdc">     42.26905020 </i>
    <i name="pawpsdc">   1478.94008704 </i>
    <i name="pawaedc">  -1467.62569457 </i>
    <i name="eentropy">     -0.00000000 </i>
    <i name="bandstr">   -207.94979947 </i>
    <i name="atom">    739.11087146 </i>
    <i name="e_fr_energy">    -21.42475561 </i>
    <i name="e_wo_entrp">    -21.42475561 </i>
    <i name="e_0_energy">    -21.42475561 </i>
   </energy>
  </scstep>
  <structure>
   <crystal>
    <varray name="basis" >
     <v>       6.77507734       0.48651458       0.01581698 </v>
     <v>       0.34936159       8.14299668       0.01798173 </v>
     <v>       0.01720709       0.02277751       6.89768437 </v>
    </varray>
    <i name="volume">    379.36421998 </i>
    <varray name="rec_basis" >
     <v>       0.14805669      -0.00635135      -0.00034837 </v>
     <v>      -0.00884497       0.12318524      -0.00038472 </v>
     <v>      -0.00031645      -0.00030657       0.14497799 </v>
    </varray>
   </crystal>
   <varray name="positions" >
    <v>       0.30062729       0.60000790       0.50064466 </v>
    <v>       0.28715177       0.74735410       0.50444319 </v>
    <v>       0.26327025       0.43474434       0.49193593 </v>
    <v>       0.41679890       0.37006327       0.50297623 </v>
   </varray>
  </structure>
  <varray name="forces" >
   <v>      -0.02434663       0.19322019       0.00306537 </v>
   <v>       0.01270681      -0.17421988      -0.00070139 </v>
   <v>       0.07459461       0.00236302       0.00300779 </v>
   <v>      -0.06295480      -0.02136332      -0.00537176 </v>
  </varray>
  <varray name="stress" >
   <v>      -1.28455308       0.10538530      -0.00198372 </v>
   <v>       0.10538533      -1.19917641      -0.00867669 </v>
   <v>      -0.00198396      -0.00867666      -1.13212310 </v>
  </varray>
  <energy>
   <i name="e_fr_energy">    -21.43895302 </i>
   <i name="e_wo_entrp">    -21.43895302 </i>
   <i name="e_0_energy">     -0.00000000 </i>
  </energy>
  <time name="totalsc">    1.53    1.53</time>
 </calculation>
 <calculation>
  <scstep>
   <time name="dav">    0.05    0.05</time>
   <time name="total">    0.16    0.16</time>
   <energy>
    <i name="alphaZ">      0.85058768 </i>
    <i name="ewald">    124.13557031 </i>
    <i name="hartreedc">   -731.88109923 </i>
    <i name="XCdc">     42.31114835 </i>
    <i name="pawpsdc">   1479.00122703 </i>
    <i name="pawaedc">  -1467.68687002 </i>
    <i name="eentropy">     -0.00000000 </i>
    <i name="bandstr">   -207.26758402 </i>
    <i name="atom">    739.11087146 </i>
    <i name="e_fr_energy">    -21.42614845 </i>
    <i name="e_wo_entrp">    -21.42614845 </i>
    <i name="e_0_energy">    -21.42614845 </i>
   </energy>
  </scstep>
  <scstep>
   <time name="diag">    0.01    0.01</time>
   <time name="diis">    0.03    0.03</time>
   <time name="orth">    0.00    0.00</time>
   <time name="total">    0.15    0.15</time>
   <energy>
    <i name="e_fr_energy">    -21.42553976 </i>
    <i name="e_wo_entrp">    -21.42553976 </i>
    <i name="e_0_energy">    -21.42553976 </i>
   </energy>
  </scstep>
  <scstep>
   <time name="diag">    0.01    0.01</time>
   <time name="diis">    0.03    0.03</time>
   <time name="orth">    0.00    0.00</time>
   <time name="total">    0.15    0.15</time>
   <energy>
    <i name="e_fr_energy">    -21.42546314 </i>
    <i name="e_wo_entrp">    -21.42546314 </i>
    <i name="e_0_energy">    -21.42546314 </i>
   </energy>
  </scstep>
  <scstep>
   <time name="diag">    0.01    0.01</time>
   <time name="diis">    0.03    0.03</time>
   <time name="orth">    0.00    0.00</time>
   <time name="total">    0.15    0.15</time>
   <energy>
    <i name="e_fr_energy">    -21.42545276 </i>
    <i name="e_wo_entrp">    -21.42545276 </i>
    <i name="e_0_energy">    -21.42545276 </i>
   </energy>
  </scstep>
  <scstep>
   <time name="diag">    0.01    0.01</time>
   <time name="diis">    0.03    0.03</time>
   <time name="orth">    0.00    0.00</time>
   <time name="total">    0.15    0.15</time>
   <energy>
    <i name="e_fr_energy">    -21.42545677 </i>
    <i name="e_wo_entrp">    -21.42545677 </i>
    <i name="e_0_energy">    -21.42545677 </i>
   </energy>
  </scstep>
  <scstep>
   <time name="diag">    0.01    0.01</time>
   <time name="diis">    0.02    0.02</time>
   <time name="orth">    0.00    0.00</time>
   <time name="total">    0.14    0.14</time>
   <energy>
    <i name="e_fr_energy">    -21.42546283 </i>
    <i name="e_wo_entrp">    -21.42546283 </i>
    <i name="e_0_energy">    -21.42546283 </i>
   </energy>
  </scstep>
  <scstep>
   <time name="diag">    0.01    0.01</time>
   <time name="diis">    0.02    0.02</time>
   <time name="orth">    0.00    0.00</time>
   <time name="total">    0.14    0.14</time>
   <energy>
    <i name="e_fr_energy">    -21.42546715 </i>
    <i name="e_wo_entrp">    -21.42546715 </i>
    <i name="e_0_energy">    -21.42546715 </i>
   </energy>
  </scstep>
  <scstep>
   <time name="diag">    0.01    0.01</time>
   <time name="diis">    0.02    0.02</time>
   <time name="orth">    0.00    0.00</time>
   <time name="total">    0.14    0.14</time>
   <energy>
    <i name="e_fr_energy">    -21.42546902 </i>
    <i name="e_wo_entrp">    -21.42546902 </i>
    <i name="e_0_energy">    -21.42546902 </i>
   </energy>
  </scstep>
  <scstep>
   <time name="diag">    0.01    0.01</time>
   <time name="diis">    0.02    0.02</time>
   <time name="orth">    0.00    0.00</time>
   <time name="total">    0.14    0.14</time>
   <energy>
    <i name="e_fr_energy">    -21.42547115 </i>
    <i name="e_wo_entrp">    -21.42547115 </i>
    <i name="e_0_energy">    -21.42547115 </i>
   </energy>
  </scstep>
  <scstep>
   <time name="diag">    0.01    0.01</time>
   <time name="diis">    0.02    0.02</time>
   <time name="orth">    0.00    0.00</time>
   <time name="total">    0.14    0.14</time>
   <energy>
    <i name="e_fr_energy">    -21.42547306 </i>
    <i name="e_wo_entrp">    -21.42547306 </i>
    <i name="e_0_energy">    -21.42547306 </i>
   </energy>
  </scstep>
  <scstep>
   <time name="diag">    0.01    0.01</time>
   <time name="diis">    0.02    0.02</time>
   <time name="orth">    0.00    0.00</time>
   <time name="total">    0.13    0.13</time>
   <energy>
    <i name="alphaZ">      0.85058768 </i>
    <i name="ewald">    124.13557031 </i>
    <i name="hartreedc">   -731.12724888 </i>
    <i name="XCdc">     42.27294797 </i>
    <i name="pawpsdc">   1478.34608368 </i>
    <i name="pawaedc">  -1467.03213469 </i>
    <i name="eentropy">     -0.00000000 </i>
    <i name="bandstr">   -207.98215133 </i>
    <i name="atom">    739.11087146 </i>
    <i name="e_fr_energy">    -21.42547382 </i>
    <i name="e_wo_entrp">    -21.42547382 </i>
    <i name="e_0_energy">    -21.42547382 </i>
   </energy>
  </scstep>
  <structure>
   <crystal>
    <varray name="basis" >
     <v>       6.76809066       0.48535175       0.01604315 </v>
     <v>       0.34767691       8.14198630       0.01796608 </v>
     <v>       0.01743818       0.02276861       6.88832955 </v>
    </varray>
    <i name="volume">    378.41908928 </i>
    <varray name="rec_basis" >
     <v>       0.14820678      -0.00632790      -0.00035428 </v>
     <v>      -0.00883385       0.12319822      -0.00038485 </v>
     <v>      -0.00032214      -0.00030659       0.14517491 </v>
    </varray>
   </crystal>
   <varray name="positions" >
    <v>       0.30055026       0.60012332       0.50064158 </v>
    <v>       0.28717719       0.74734580       0.50445358 </v>
    <v>       0.26319217       0.43483471       0.49192218 </v>
    <v>       0.41692859       0.36986578       0.50298266 </v>
   </varray>
  </structure>
  <varray name="forces" >
   <v>      -0.00821473       0.11541955       0.00253963 </v>
   <v>       0.00903094      -0.09607941       0.00099350 </v>
   <v>       0.09345039      -0.02653751       0.00379069 </v>
   <v>      -0.09426660       0.00719736      -0.00732382 </v>
  </varray>
  <varray name="stress" >
   <v>      -1.39591739       0.22080153      -0.00995146 </v>
   <v>       0.22080176      -0.85112617       0.01086131 </v>
   <v>      -0.00995127       0.01086124      -1.12248053 </v>
  </varray>
  <energy>
   <i name="e_fr_energy">    -21.43971048 </i>
   <i name="e_wo_entrp">    -21.43971048 </i>
   <i name="e_0_energy">     -0.00000000 </i>
  </energy>
  <time name="totalsc">    1.97    1.97</time>
 </calculation>
 <calculation>
  <scstep>
   <time name="dav">    0.06    0.06</time>
   <time name="total">    0.18    0.18</time>
   <energy>
    <i name="alphaZ">      0.85587315 </i>
    <i name="ewald">    123.48725549 </i>
    <i name="hartreedc">   -732.27378316 </i>
    <i name="XCdc">     42.37703964 </i>
    <i name="pawpsdc">   1478.35151658 </i>
    <i name="pawaedc">  -1467.03757267 </i>
    <i name="eentropy">     -0.00000000 </i>
    <i name="bandstr">   -206.30194469 </i>
    <i name="atom">    739.11087146 </i>
    <i name="e_fr_energy">    -21.43074421 </i>
    <i name="e_wo_entrp">    -21.43074421 </i>
    <i name="e_0_energy">    -21.43074421 </i>
   </energy>
  </scstep>
  <scstep>
   <time name="diag">    0.01    0.01</time>
   <time name="diis">    0.03    0.03</time>
   <time name="orth">    0.00    0.00</time>
   <time name="total">    0.15    0.15</time>
   <energy>
    <i name="e_fr_energy">    -21.42680155 </i>
    <i name="e_wo_entrp">    -21.42680155 </i>
    <i name="e_0_energy">    -21.42680155 </i>
   </energy>
  </scstep>
  <scstep>
   <time name="diag">    0.01    0.01</time>
   <time name="diis">    0.03    0.03</time>
   <time name="orth">    0.00    0.00</time>
   <time name="total">    0.15    0.15</time>
   <energy>
    <i name="e_fr_energy">    -21.42635888 </i>
    <i name="e_wo_entrp">    -21.42635888 </i>
    <i name="e_0_energy">    -21.42635888 </i>
   </energy>
  </scstep>
  <scstep>
   <time name="diag">    0.01    0.01</time>
   <time name="diis">    0.03    0.03</time>
   <time name="orth">    0.00    0.00</time>
   <time name="total">    0.15    0.15</time>
   <energy>
    <i name="e_fr_energy">    -21.42632360 </i>
    <i name="e_wo_entrp">    -21.42632360 </i>
    <i name="e_0_energy">    -21.42632360 </i>
   </energy>
  </scstep>
  <scstep>
   <time name="diag">    0.01    0.01</time>
   <time name="diis">    0.03    0.03</time>
   <time name="orth">    0.00    0.00</time>
   <time name="total">    0.15    0.15</time>
   <energy>
    <i name="e_fr_energy">    -21.42636182 </i>
    <i name="e_wo_entrp">    -21.42636182 </i>
    <i name="e_0_energy">    -21.42636182 </i>
   </energy>
  </scstep>
  <scstep>
   <time name="diag">    0.01    0.01</time>
   <time name="diis">    0.03    0.03</time>
   <time name="orth">    0.00    0.00</time>
   <time name="total">    0.15    0.15</time>
   <energy>
    <i name="e_fr_energy">    -21.42639746 </i>
    <i name="e_wo_entrp">    -21.42639746 </i>
    <i name="e_0_energy">    -21.42639746 </i>
   </energy>
  </scstep>
  <scstep>
   <time name="diag">    0.01    0.01</time>
   <time name="diis">    0.03    0.03</time>
   <time name="orth">    0.00    0.00</time>
   <time name="total">    0.15    0.15</time>
   <energy>
    <i name="e_fr_energy">    -21.42641947 </i>
    <i name="e_wo_entrp">    -21.42641947 </i>
    <i name="e_0_energy">    -21.42641947 </i>
   </energy>
  </scstep>
  <scstep>
   <time name="diag">    0.01    0.01</time>
   <time name="diis">    0.02    0.02</time>
   <time name="orth">    0.00    0.00</time>
   <time name="total">    0.14    0.14</time>
   <energy>
    <i name="e_fr_energy">    -21.42643090 </i>
    <i name="e_wo_entrp">    -21.42643090 </i>
    <i name="e_0_energy">    -21.42643090 </i>
   </energy>
  </scstep>
  <scstep>
   <time name="diag">    0.01    0.01</time>
   <time name="diis">    0.03    0.03</time>
   <time name="orth">    0.00    0.00</time>
   <time name="total">    0.15    0.15</time>
   <energy>
    <i name="e_fr_energy">    -21.42644804 </i>
    <i name="e_wo_entrp">    -21.42644804 </i>
    <i name="e_0_energy">    -21.42644804 </i>
   </energy>
  </scstep>
  <scstep>
   <time name="diag">    0.01    0.01</time>
   <time name="diis">    0.02    0.02</time>
   <time name="orth">    0.00    0.00</time>
   <time name="total">    0.15    0.15</time>
   <energy>
    <i name="e_fr_energy">    -21.42645530 </i>
    <i name="e_wo_entrp">    -21.42645530 </i>
    <i name="e_0_energy">    -21.42645530 </i>
   </energy>
  </scstep>
  <scstep>
   <time name="diag">    0.01    0.01</time>
   <time name="diis">    0.02    0.02</time>
   <time name="orth">    0.00    0.00</time>
   <time name="total">    0.14    0.14</time>
   <energy>
    <i name="e_fr_energy">    -21.42645971 </i>
    <i name="e_wo_entrp">    -21.42645971 </i>
    <i name="e_0_energy">    -21.42645971 </i>
   </energy>
  </scstep>
  <scstep>
   <time name="diag">    0.01    0.01</time>
   <time name="diis">    0.02    0.02</time>
   <time name="orth">    0.00    0.00</time>
   <time name="total">    0.14    0.14</time>
   <energy>
    <i name="e_fr_energy">    -21.42646281 </i>
    <i name="e_wo_entrp">    -21.42646281 </i>
    <i name="e_0_energy">    -21.42646281 </i>
   </energy>
  </scstep>
  <scstep>
   <time name="diag">    0.01    0.01</time>
   <time name="diis">    0.02    0.02</time>
   <time name="orth">    0.00    0.00</time>
   <time name="total">    0.13    0.13</time>
   <energy>
    <i name="alphaZ">      0.85587315 </i>
    <i name="ewald">    123.48725549 </i>
    <i name="hartreedc">   -730.40195730 </i>
    <i name="XCdc">     42.28223829 </i>
    <i name="pawpsdc">   1476.69995229 </i>
    <i name="pawaedc">  -1465.38707011 </i>
    <i name="eentropy">     -0.00000000 </i>
    <i name="bandstr">   -208.07362667 </i>
    <i name="atom">    739.11087146 </i>
    <i name="e_fr_energy">    -21.42646342 </i>
    <i name="e_wo_entrp">    -21.42646342 </i>
    <i name="e_0_energy">    -21.42646342 </i>
   </energy>
  </scstep>
  <structure>
   <crystal>
    <varray name="basis" >
     <v>       6.75077588       0.48246998       0.01660366 </v>
     <v>       0.34350183       8.13948233       0.01792728 </v>
     <v>       0.01801087       0.02274655       6.86514591 </v>
    </varray>
    <i name="volume">    376.08215064 </i>
    <varray name="rec_basis" >
     <v>       0.14858011      -0.00626955      -0.00036903 </v>
     <v>      -0.00880619       0.12323042      -0.00038520 </v>
     <v>      -0.00033635      -0.00030663       0.14566523 </v>
    </varray>
   </crystal>
   <varray name="positions" >
    <v>       0.30035924       0.60040936       0.50063395 </v>
    <v>       0.28724024       0.74732524       0.50447937 </v>
    <v>       0.26299854       0.43505868       0.49188809 </v>
    <v>       0.41725019       0.36937633       0.50299859 </v>
   </varray>
  </structure>
  <varray name="forces" >
   <v>       0.03105768      -0.08044916       0.00101547 </v>
   <v>      -0.00016007       0.10105175       0.00531591 </v>
   <v>       0.13954992      -0.09786967       0.00572388 </v>
   <v>      -0.17044754       0.07726708      -0.01205526 </v>
  </varray>
  <varray name="stress" >
   <v>      -1.65453630       0.50579774      -0.03018301 </v>
   <v>       0.50579776       0.03183280       0.05974756 </v>
   <v>      -0.03018317       0.05974734      -1.08552109 </v>
  </varray>
  <energy>
   <i name="e_fr_energy">    -21.44079897 </i>
   <i name="e_wo_entrp">    -21.44079897 </i>
   <i name="e_0_energy">     -0.00000000 </i>
  </energy>
  <time name="totalsc">    2.30    2.30</time>
 </calculation>
 <calculation>
  <scstep>
   <time name="dav">    0.06    0.06</time>
   <time name="total">    0.18    0.18</time>
   <energy>
    <i name="alphaZ">      0.85837803 </i>
    <i name="ewald">    123.18247521 </i>
    <i name="hartreedc">   -730.94269290 </i>
    <i name="XCdc">     42.33131104 </i>
    <i name="pawpsdc">   1476.69809105 </i>
    <i name="pawaedc">  -1465.38520534 </i>
    <i name="eentropy">     -0.00000000 </i>
    <i name="bandstr">   -207.28072145 </i>
    <i name="atom">    739.11087146 </i>
    <i name="e_fr_energy">    -21.42749292 </i>
    <i name="e_wo_entrp">    -21.42749292 </i>
    <i name="e_0_energy">    -21.42749292 </i>
   </energy>
  </scstep>
  <scstep>
   <time name="diag">    0.01    0.01</time>
   <time name="diis">    0.03    0.03</time>
   <time name="orth">    0.00    0.00</time>
   <time name="total">    0.15    0.15</time>
   <energy>
    <i name="e_fr_energy">    -21.42662033 </i>
    <i name="e_wo_entrp">    -21.42662033 </i>
    <i name="e_0_energy">    -21.42662033 </i>
   </energy>
  </scstep>
  <scstep>
   <time name="diag">    0.01    0.01</time>
   <time name="diis">    0.03    0.03</time>
   <time name="orth">    0.00    0.00</time>
   <time name="total">    0.15    0.15</time>
   <energy>
    <i name="e_fr_energy">    -21.42651662 </i>
    <i name="e_wo_entrp">    -21.42651662 </i>
    <i name="e_0_energy">    -21.42651662 </i>
   </energy>
  </scstep>
  <scstep>
   <time name="diag">    0.01    0.01</time>
   <time name="diis">    0.03    0.03</time>
   <time name="orth">    0.00    0.00</time>
   <time name="total">    0.15    0.15</time>
   <energy>
    <i name="e_fr_energy">    -21.42650534 </i>
    <i name="e_wo_entrp">    -21.42650534 </i>
    <i name="e_0_energy">    -21.42650534 </i>
   </energy>
  </scstep>
  <scstep>
   <time name="diag">    0.01    0.01</time>
   <time name="diis">    0.03    0.03</time>
   <time name="orth">    0.00    0.00</time>
   <time name="total">    0.15    0.15</time>
   <energy>
    <i name="e_fr_energy">    -21.42651378 </i>
    <i name="e_wo_entrp">    -21.42651378 </i>
    <i name="e_0_energy">    -21.42651378 </i>
   </energy>
  </scstep>
  <scstep>
   <time name="diag">    0.01    0.01</time>
   <time name="diis">    0.03    0.03</time>
   <time name="orth">    0.00    0.00</time>
   <time name="total">    0.14    0.15</time>
   <energy>
    <i name="e_fr_energy">    -21.42652289 </i>
    <i name="e_wo_entrp">    -21.42652289 </i>
    <i name="e_0_energy">    -21.42652289 </i>
   </energy>
  </scstep>
  <scstep>
   <time name="diag">    0.01    0.01</time>
   <time name="diis">    0.02    0.02</time>
   <time name="orth">    0.00    0.00</time>
   <time name="total">    0.14    0.14</time>
   <energy>
    <i name="e_fr_energy">    -21.42652883 </i>
    <i name="e_wo_entrp">    -21.42652883 </i>
    <i name="e_0_energy">    -21.42652883 </i>
   </energy>
  </scstep>
  <scstep>
   <time name="diag">    0.01    0.01</time>
   <time name="diis">    0.02    0.02</time>
   <time name="orth">    0.00    0.00</time>
   <time name="total">    0.14    0.14</time>
   <energy>
    <i name="e_fr_energy">    -21.42653209 </i>
    <i name="e_wo_entrp">    -21.42653209 </i>
    <i name="e_0_energy">    -21.42653209 </i>
   </energy>
  </scstep>
  <scstep>
   <time name="diag">    0.01    0.01</time>
   <time name="diis">    0.02    0.02</time>
   <time name="orth">    0.00    0.00</time>
   <time name="total">    0.14    0.14</time>
   <energy>
    <i name="e_fr_energy">    -21.42653654 </i>
    <i name="e_wo_entrp">    -21.42653654 </i>
    <i name="e_0_energy">    -21.42653654 </i>
   </energy>
  </scstep>
  <scstep>
   <time name="diag">    0.01    0.01</time>
   <time name="diis">    0.02    0.02</time>
   <time name="orth">    0.00    0.00</time>
   <time name="total">    0.14    0.14</time>
   <energy>
    <i name="e_fr_energy">    -21.42653874 </i>
    <i name="e_wo_entrp">    -21.42653874 </i>
    <i name="e_0_energy">    -21.42653874 </i>
   </energy>
  </scstep>
  <scstep>
   <time name="diag">    0.01    0.01</time>
   <time name="diis">    0.02    0.02</time>
   <time name="orth">    0.00    0.00</time>
   <time name="total">    0.14    0.14</time>
   <energy>
    <i name="e_fr_energy">    -21.42653980 </i>
    <i name="e_wo_entrp">    -21.42653980 </i>
    <i name="e_0_energy">    -21.42653980 </i>
   </energy>
  </scstep>
  <scstep>
   <time name="diag">    0.01    0.01</time>
   <time name="diis">    0.02    0.02</time>
   <time name="orth">    0.00    0.00</time>
   <time name="total">    0.13    0.13</time>
   <energy>
    <i name="alphaZ">      0.85837803 </i>
    <i name="ewald">    123.18247521 </i>
    <i name="hartreedc">   -730.06053580 </i>
    <i name="XCdc">     42.28662834 </i>
    <i name="pawpsdc">   1475.94693618 </i>
    <i name="pawaedc">  -1464.63455999 </i>
    <i name="eentropy">     -0.00000000 </i>
    <i name="bandstr">   -208.11673372 </i>
    <i name="atom">    739.11087146 </i>
    <i name="e_fr_energy">    -21.42654029 </i>
    <i name="e_wo_entrp">    -21.42654029 </i>
    <i name="e_0_energy">    -21.42654029 </i>
   </energy>
  </scstep>
  <structure>
   <crystal>
    <varray name="basis" >
     <v>       6.74262506       0.48111340       0.01686752 </v>
     <v>       0.34153644       8.13830360       0.01790902 </v>
     <v>       0.01828047       0.02273616       6.85423236 </v>
    </varray>
    <i name="volume">    374.98468468 </i>
    <varray name="rec_basis" >
     <v>       0.14875652      -0.00624197      -0.00037603 </v>
     <v>      -0.00879310       0.12324559      -0.00038537 </v>
     <v>      -0.00034310      -0.00030666       0.14589719 </v>
    </varray>
   </crystal>
   <varray name="positions" >
    <v>       0.30026918       0.60054403       0.50063035 </v>
    <v>       0.28726999       0.74731557       0.50449155 </v>
    <v>       0.26290722       0.43516412       0.49187199 </v>
    <v>       0.41740184       0.36914589       0.50300611 </v>
   </varray>
  </structure>
  <varray name="forces" >
   <v>       0.04935397      -0.17400427       0.00029450 </v>
   <v>      -0.00454744       0.19544504       0.00742707 </v>
   <v>       0.16100006      -0.13156667       0.00661132 </v>
   <v>      -0.20580658       0.11012590      -0.01433289 </v>
  </varray>
  <varray name="stress" >
   <v>      -1.76964601       0.64053984      -0.03957159 </v>
   <v>       0.64053945       0.45909855       0.08309960 </v>
   <v>      -0.03957148       0.08309945      -1.06344647 </v>
  </varray>
  <energy>
   <i name="e_fr_energy">    -21.44092322 </i>
   <i name="e_wo_entrp">    -21.44092322 </i>
   <i name="e_0_energy">     -0.00000000 </i>
  </energy>
  <time name="totalsc">    2.13    2.13</time>
 </calculation>
 <calculation>
  <scstep>
   <time name="dav">    0.05    0.05</time>
   <time name="total">    0.17    0.17</time>
   <energy>
    <i name="alphaZ">      0.86052939 </i>
    <i name="ewald">    122.68153671 </i>
    <i name="hartreedc">   -730.38134932 </i>
    <i name="XCdc">     42.32615924 </i>
    <i name="pawpsdc">   1475.95044182 </i>
    <i name="pawaedc">  -1464.63807010 </i>
    <i name="eentropy">     -0.00000000 </i>
    <i name="bandstr">   -207.33807117 </i>
    <i name="atom">    739.11087146 </i>
    <i name="e_fr_energy">    -21.42795197 </i>
    <i name="e_wo_entrp">    -21.42795197 </i>
    <i name="e_0_energy">    -21.42795197 </i>
   </energy>
  </scstep>
  <scstep>
   <time name="diag">    0.01    0.01</time>
   <time name="diis">    0.03    0.03</time>
   <time name="orth">    0.00    0.00</time>
   <time name="total">    0.15    0.15</time>
   <energy>
    <i name="e_fr_energy">    -21.42724121 </i>
    <i name="e_wo_entrp">    -21.42724121 </i>
    <i name="e_0_energy">    -21.42724121 </i>
   </energy>
  </scstep>
  <scstep>
   <time name="diag">    0.01    0.01</time>
   <time name="diis">    0.03    0.03</time>
   <time name="orth">    0.00    0.00</time>
   <time name="total">    0.15    0.15</time>
   <energy>
    <i name="e_fr_energy">    -21.42716184 </i>
    <i name="e_wo_entrp">    -21.42716184 </i>
    <i name="e_0_energy">    -21.42716184 </i>
   </energy>
  </scstep>
  <scstep>
   <time name="diag">    0.01    0.01</time>
   <time name="diis">    0.03    0.03</time>
   <time name="orth">    0.00    0.00</time>
   <time name="total">    0.15    0.15</time>
   <energy>
    <i name="e_fr_energy">    -21.42714994 </i>
    <i name="e_wo_entrp">    -21.42714994 </i>
    <i name="e_0_energy">    -21.42714994 </i>
   </energy>
  </scstep>
  <scstep>
   <time name="diag">    0.01    0.01</time>
   <time name="diis">    0.03    0.03</time>
   <time name="orth">    0.00    0.00</time>
   <time name="total">    0.15    0.15</time>
   <energy>
    <i name="e_fr_energy">    -21.42715614 </i>
    <i name="e_wo_entrp">    -21.42715614 </i>
    <i name="e_0_energy">    -21.42715614 </i>
   </energy>
  </scstep>
  <scstep>
   <time name="diag">    0.01    0.01</time>
   <time name="diis">    0.02    0.02</time>
   <time name="orth">    0.00    0.00</time>
   <time name="total">    0.14    0.14</time>
   <energy>
    <i name="e_fr_energy">    -21.42716345 </i>
    <i name="e_wo_entrp">    -21.42716345 </i>
    <i name="e_0_energy">    -21.42716345 </i>
   </energy>
  </scstep>
  <scstep>
   <time name="diag">    0.01    0.01</time>
   <time name="diis">    0.02    0.02</time>
   <time name="orth">    0.00    0.00</time>
   <time name="total">    0.14    0.14</time>
   <energy>
    <i name="e_fr_energy">    -21.42716886 </i>
    <i name="e_wo_entrp">    -21.42716886 </i>
    <i name="e_0_energy">    -21.42716886 </i>
   </energy>
  </scstep>
  <scstep>
   <time name="diag">    0.01    0.01</time>
   <time name="diis">    0.02    0.02</time>
   <time name="orth">    0.00    0.00</time>
   <time name="total">    0.14    0.14</time>
   <energy>
    <i name="e_fr_energy">    -21.42717141 </i>
    <i name="e_wo_entrp">    -21.42717141 </i>
    <i name="e_0_energy">    -21.42717141 </i>
   </energy>
  </scstep>
  <scstep>
   <time name="diag">    0.01    0.01</time>
   <time name="diis">    0.02    0.02</time>
   <time name="orth">    0.00    0.00</time>
   <time name="total">    0.14    0.14</time>
   <energy>
    <i name="e_fr_energy">    -21.42717448 </i>
    <i name="e_wo_entrp">    -21.42717448 </i>
    <i name="e_0_energy">    -21.42717448 </i>
   </energy>
  </scstep>
  <scstep>
   <time name="diag">    0.01    0.01</time>
   <time name="diis">    0.02    0.02</time>
   <time name="orth">    0.00    0.00</time>
   <time name="total">    0.14    0.14</time>
   <energy>
    <i name="e_fr_energy">    -21.42717683 </i>
    <i name="e_wo_entrp">    -21.42717683 </i>
    <i name="e_0_energy">    -21.42717683 </i>
   </energy>
  </scstep>
  <scstep>
   <time name="diag">    0.01    0.01</time>
   <time name="diis">    0.02    0.02</time>
   <time name="orth">    0.00    0.00</time>
   <time name="total">    0.13    0.13</time>
   <energy>
    <i name="alphaZ">      0.86052939 </i>
    <i name="ewald">    122.68153671 </i>
    <i name="hartreedc">   -729.59962703 </i>
    <i name="XCdc">     42.28644055 </i>
    <i name="pawpsdc">   1474.22988212 </i>
    <i name="pawaedc">  -1462.91731645 </i>
    <i name="eentropy">     -0.00000000 </i>
    <i name="bandstr">   -208.07949418 </i>
    <i name="atom">    739.11087146 </i>
    <i name="e_fr_energy">    -21.42717745 </i>
    <i name="e_wo_entrp">    -21.42717745 </i>
    <i name="e_0_energy">    -21.42717745 </i>
   </energy>
  </scstep>
  <structure>
   <crystal>
    <varray name="basis" >
     <v>       6.73480125       0.48090775       0.01701437 </v>
     <v>       0.34090489       8.13812392       0.01800466 </v>
     <v>       0.01842392       0.02282871       6.84516912 </v>
    </varray>
    <i name="volume">    374.04720864 </i>
    <varray name="rec_basis" >
     <v>       0.14892886      -0.00623777      -0.00038004 </v>
     <v>      -0.00879971       0.12324792      -0.00038735 </v>
     <v>      -0.00034703      -0.00030867       0.14609039 </v>
    </varray>
   </crystal>
   <varray name="positions" >
    <v>       0.30022848       0.60057797       0.50062798 </v>
    <v>       0.28728599       0.74737838       0.50450332 </v>
    <v>       0.26291289       0.43518923       0.49186310 </v>
    <v>       0.41742085       0.36902403       0.50300559 </v>
   </varray>
  </structure>
  <varray name="forces" >
   <v>       0.05760475      -0.17044597       0.00124985 </v>
   <v>      -0.00611813       0.17966687       0.00680088 </v>
   <v>       0.13976699      -0.12299403       0.00495374 </v>
   <v>      -0.19125362       0.11377313      -0.01300447 </v>
  </varray>
  <varray name="stress" >
   <v>      -1.68498311       0.64666474      -0.03363923 </v>
   <v>       0.64666486       0.30670930       0.07955092 </v>
   <v>      -0.03363913       0.07955089      -1.04892425 </v>
  </varray>
  <energy>
   <i name="e_fr_energy">    -21.44159874 </i>
   <i name="e_wo_entrp">    -21.44159874 </i>
   <i name="e_0_energy">     -0.00000000 </i>
  </energy>
  <time name="totalsc">    1.98    1.98</time>
 </calculation>
 <calculation>
  <scstep>
   <time name="dav">    0.05    0.05</time>
   <time name="total">    0.17    0.17</time>
   <energy>
    <i name="alphaZ">      0.86703202 </i>
    <i name="ewald">    121.17553492 </i>
    <i name="hartreedc">   -730.56641906 </i>
    <i name="XCdc">     42.40541888 </i>
    <i name="pawpsdc">   1474.22930569 </i>
    <i name="pawaedc">  -1462.91674351 </i>
    <i name="eentropy">     -0.00000000 </i>
    <i name="bandstr">   -205.74085763 </i>
    <i name="atom">    739.11087146 </i>
    <i name="e_fr_energy">    -21.43585723 </i>
    <i name="e_wo_entrp">    -21.43585723 </i>
    <i name="e_0_energy">    -21.43585723 </i>
   </energy>
  </scstep>
  <scstep>
   <time name="diag">    0.01    0.01</time>
   <time name="diis">    0.03    0.03</time>
   <time name="orth">    0.00    0.00</time>
   <time name="total">    0.15    0.15</time>
   <energy>
    <i name="e_fr_energy">    -21.42939209 </i>
    <i name="e_wo_entrp">    -21.42939209 </i>
    <i name="e_0_energy">    -21.42939209 </i>
   </energy>
  </scstep>
  <scstep>
   <time name="diag">    0.01    0.01</time>
   <time name="diis">    0.03    0.03</time>
   <time name="orth">    0.00    0.00</time>
   <time name="total">    0.15    0.15</time>
   <energy>
    <i name="e_fr_energy">    -21.42873572 </i>
    <i name="e_wo_entrp">    -21.42873572 </i>
    <i name="e_0_energy">    -21.42873572 </i>
   </energy>
  </scstep>
  <scstep>
   <time name="diag">    0.01    0.01</time>
   <time name="diis">    0.03    0.03</time>
   <time name="orth">    0.00    0.00</time>
   <time name="total">    0.15    0.15</time>
   <energy>
    <i name="e_fr_energy">    -21.42864724 </i>
    <i name="e_wo_entrp">    -21.42864724 </i>
    <i name="e_0_energy">    -21.42864724 </i>
   </energy>
  </scstep>
  <scstep>
   <time name="diag">    0.01    0.01</time>
   <time name="diis">    0.03    0.03</time>
   <time name="orth">    0.00    0.00</time>
   <time name="total">    0.15    0.15</time>
   <energy>
    <i name="e_fr_energy">    -21.42870818 </i>
    <i name="e_wo_entrp">    -21.42870818 </i>
    <i name="e_0_energy">    -21.42870818 </i>
   </energy>
  </scstep>
  <scstep>
   <time name="diag">    0.01    0.01</time>
   <time name="diis">    0.03    0.03</time>
   <time name="orth">    0.00    0.00</time>
   <time name="total">    0.15    0.15</time>
   <energy>
    <i name="e_fr_energy">    -21.42875624 </i>
    <i name="e_wo_entrp">    -21.42875624 </i>
    <i name="e_0_energy">    -21.42875624 </i>
   </energy>
  </scstep>
  <scstep>
   <time name="diag">    0.01    0.01</time>
   <time name="diis">    0.03    0.03</time>
   <time name="orth">    0.00    0.00</time>
   <time name="total">    0.15    0.15</time>
   <energy>
    <i name="e_fr_energy">    -21.42879222 </i>
    <i name="e_wo_entrp">    -21.42879222 </i>
    <i name="e_0_energy">    -21.42879222 </i>
   </energy>
  </scstep>
  <scstep>
   <time name="diag">    0.01    0.01</time>
   <time name="diis">    0.03    0.03</time>
   <time name="orth">    0.00    0.00</time>
   <time name="total">    0.14    0.14</time>
   <energy>
    <i name="e_fr_energy">    -21.42880761 </i>
    <i name="e_wo_entrp">    -21.42880761 </i>
    <i name="e_0_energy">    -21.42880761 </i>
   </energy>
  </scstep>
  <scstep>
   <time name="diag">    0.01    0.01</time>
   <time name="diis">    0.03    0.03</time>
   <time name="orth">    0.00    0.00</time>
   <time name="total">    0.15    0.15</time>
   <energy>
    <i name="e_fr_energy">    -21.42882996 </i>
    <i name="e_wo_entrp">    -21.42882996 </i>
    <i name="e_0_energy">    -21.42882996 </i>
   </energy>
  </scstep>
  <scstep>
   <time name="diag">    0.01    0.01</time>
   <time name="diis">    0.02    0.02</time>
   <time name="orth">    0.00    0.00</time>
   <time name="total">    0.14    0.14</time>
   <energy>
    <i name="e_fr_energy">    -21.42884095 </i>
    <i name="e_wo_entrp">    -21.42884095 </i>
    <i name="e_0_energy">    -21.42884095 </i>
   </energy>
  </scstep>
  <scstep>
   <time name="diag">    0.01    0.01</time>
   <time name="diis">    0.02    0.02</time>
   <time name="orth">    0.00    0.00</time>
   <time name="total">    0.14    0.14</time>
   <energy>
    <i name="e_fr_energy">    -21.42884682 </i>
    <i name="e_wo_entrp">    -21.42884682 </i>
    <i name="e_0_energy">    -21.42884682 </i>
   </energy>
  </scstep>
  <scstep>
   <time name="diag">    0.01    0.01</time>
   <time name="diis">    0.02    0.02</time>
   <time name="orth">    0.00    0.00</time>
   <time name="total">    0.14    0.14</time>
   <energy>
    <i name="e_fr_energy">    -21.42885203 </i>
    <i name="e_wo_entrp">    -21.42885203 </i>
    <i name="e_0_energy">    -21.42885203 </i>
   </energy>
  </scstep>
  <scstep>
   <time name="diag">    0.01    0.01</time>
   <time name="diis">    0.02    0.02</time>
   <time name="orth">    0.00    0.00</time>
   <time name="total">    0.14    0.14</time>
   <energy>
    <i name="e_fr_energy">    -21.42885333 </i>
    <i name="e_wo_entrp">    -21.42885333 </i>
    <i name="e_0_energy">    -21.42885333 </i>
   </energy>
  </scstep>
  <scstep>
   <time name="diag">    0.01    0.01</time>
   <time name="diis">    0.02    0.02</time>
   <time name="orth">    0.00    0.00</time>
   <time name="total">    0.13    0.13</time>
   <energy>
    <i name="alphaZ">      0.86703202 </i>
    <i name="ewald">    121.17553492 </i>
    <i name="hartreedc">   -728.21389268 </i>
    <i name="XCdc">     42.28583580 </i>
    <i name="pawpsdc">   1469.10869797 </i>
    <i name="pawaedc">  -1457.79556521 </i>
    <i name="eentropy">     -0.00000000 </i>
    <i name="bandstr">   -207.96736778 </i>
    <i name="atom">    739.11087146 </i>
    <i name="e_fr_energy">    -21.42885350 </i>
    <i name="e_wo_entrp">    -21.42885350 </i>
    <i name="e_0_energy">    -21.42885350 </i>
   </energy>
  </scstep>
  <structure>
   <crystal>
    <varray name="basis" >
     <v>       6.71132985       0.48029080       0.01745495 </v>
     <v>       0.33901025       8.13758488       0.01829155 </v>
     <v>       0.01885429       0.02310636       6.81797940 </v>
    </varray>
    <i name="volume">    371.24189848 </i>
    <varray name="rec_basis" >
     <v>       0.14944828      -0.00622511      -0.00039218 </v>
     <v>      -0.00881961       0.12325489      -0.00039333 </v>
     <v>      -0.00035895      -0.00031474       0.14667308 </v>
    </varray>
   </crystal>
   <varray name="positions" >
    <v>       0.30010627       0.60067977       0.50062087 </v>
    <v>       0.28733408       0.74756682       0.50453868 </v>
    <v>       0.26292993       0.43526457       0.49183640 </v>
    <v>       0.41747793       0.36865844       0.50300405 </v>
   </varray>
  </structure>
  <varray name="forces" >
   <v>       0.08222543      -0.15975580       0.00407437 </v>
   <v>      -0.01070580       0.13257427       0.00502480 </v>
   <v>       0.07600757      -0.09716361      -0.00010893 </v>
   <v>      -0.14752721       0.12434515      -0.00899024 </v>
  </varray>
  <varray name="stress" >
   <v>      -1.42799376       0.66377348      -0.01567727 </v>
   <v>       0.66377354      -0.15044947       0.06855121 </v>
   <v>      -0.01567747       0.06855103      -1.00649984 </v>
  </varray>
  <energy>
   <i name="e_fr_energy">    -21.44339158 </i>
   <i name="e_wo_entrp">    -21.44339158 </i>
   <i name="e_0_energy">     -0.00000000 </i>
  </energy>
  <time name="totalsc">    2.42    2.43</time>
 </calculation>
 <calculation>
  <scstep>
   <time name="dav">    0.05    0.06</time>
   <time name="total">    0.17    0.17</time>
   <energy>
    <i name="alphaZ">      0.88025955 </i>
    <i name="ewald">    118.14924619 </i>
    <i name="hartreedc">   -730.16354791 </i>
    <i name="XCdc">     42.52532877 </i>
    <i name="pawpsdc">   1469.10616445 </i>
    <i name="pawaedc">  -1457.79303219 </i>
    <i name="eentropy">     -0.00000000 </i>
    <i name="bandstr">   -203.27481642 </i>
    <i name="atom">    739.11087146 </i>
    <i name="e_fr_energy">    -21.45952611 </i>
    <i name="e_wo_entrp">    -21.45952611 </i>
    <i name="e_0_energy">    -21.45952611 </i>
   </energy>
  </scstep>
  <scstep>
   <time name="diag">    0.01    0.01</time>
   <time name="diis">    0.03    0.03</time>
   <time name="orth">    0.00    0.00</time>
   <time name="total">    0.15    0.15</time>
   <energy>
    <i name="e_fr_energy">    -21.43346008 </i>
    <i name="e_wo_entrp">    -21.43346008 </i>
    <i name="e_0_energy">    -21.43346008 </i>
   </energy>
  </scstep>
  <scstep>
   <time name="diag">    0.01    0.01</time>
   <time name="diis">    0.03    0.03</time>
   <time name="orth">    0.00    0.00</time>
   <time name="total">    0.15    0.15</time>
   <energy>
    <i name="e_fr_energy">    -21.43085470 </i>
    <i name="e_wo_entrp">    -21.43085470 </i>
    <i name="e_0_energy">    -21.43085470 </i>
   </energy>
  </scstep>
  <scstep>
   <time name="diag">    0.01    0.01</time>
   <time name="diis">    0.03    0.03</time>
   <time name="orth">    0.00    0.00</time>
   <time name="total">    0.15    0.15</time>
   <energy>
    <i name="e_fr_energy">    -21.43048802 </i>
    <i name="e_wo_entrp">    -21.43048802 </i>
    <i name="e_0_energy">    -21.43048802 </i>
   </energy>
  </scstep>
  <scstep>
   <time name="diag">    0.01    0.01</time>
   <time name="diis">    0.03    0.03</time>
   <time name="orth">    0.00    0.00</time>
   <time name="total">    0.15    0.15</time>
   <energy>
    <i name="e_fr_energy">    -21.43070500 </i>
    <i name="e_wo_entrp">    -21.43070500 </i>
    <i name="e_0_energy">    -21.43070500 </i>
   </energy>
  </scstep>
  <scstep>
   <time name="diag">    0.01    0.01</time>
   <time name="diis">    0.03    0.03</time>
   <time name="orth">    0.00    0.00</time>
   <time name="total">    0.15    0.15</time>
   <energy>
    <i name="e_fr_energy">    -21.43086108 </i>
    <i name="e_wo_entrp">    -21.43086108 </i>
    <i name="e_0_energy">    -21.43086108 </i>
   </energy>
  </scstep>
  <scstep>
   <time name="diag">    0.01    0.01</time>
   <time name="diis">    0.03    0.03</time>
   <time name="orth">    0.00    0.00</time>
   <time name="total">    0.15    0.15</time>
   <energy>
    <i name="e_fr_energy">    -21.43098194 </i>
    <i name="e_wo_entrp">    -21.43098194 </i>
    <i name="e_0_energy">    -21.43098194 </i>
   </energy>
  </scstep>
  <scstep>
   <time name="diag">    0.01    0.01</time>
   <time name="diis">    0.03    0.03</time>
   <time name="orth">    0.00    0.00</time>
   <time name="total">    0.15    0.15</time>
   <energy>
    <i name="e_fr_energy">    -21.43102933 </i>
    <i name="e_wo_entrp">    -21.43102933 </i>
    <i name="e_0_energy">    -21.43102933 </i>
   </energy>
  </scstep>
  <scstep>
   <time name="diag">    0.01    0.01</time>
   <time name="diis">    0.03    0.03</time>
   <time name="orth">    0.00    0.00</time>
   <time name="total">    0.15    0.15</time>
   <energy>
    <i name="e_fr_energy">    -21.43109710 </i>
    <i name="e_wo_entrp">    -21.43109710 </i>
    <i name="e_0_energy">    -21.43109710 </i>
   </energy>
  </scstep>
  <scstep>
   <time name="diag">    0.01    0.01</time>
[...]
  </structure>
  <varray name="forces" >
   <v>       0.00951651       0.00606457      -0.00222636 </v>
   <v>      -0.02529709      -0.01830922      -0.02016775 </v>
   <v>       0.01576883      -0.02830065       0.01332709 </v>
   <v>       0.00001175       0.04054530       0.00906702 </v>
  </varray>
  <varray name="stress" >
   <v>      -1.08600603       0.09272404       0.05908498 </v>
   <v>       0.09272471       0.18160255      -0.31445459 </v>
   <v>       0.05908437      -0.31445442       0.32941164 </v>
  </varray>
  <energy>
   <i name="e_fr_energy">    -26.71939011 </i>
   <i name="e_wo_entrp">    -26.71939011 </i>
   <i name="e_0_energy">     -0.00000000 </i>
  </energy>
  <time name="totalsc">    1.50    1.50</time>
 </calculation>
 <calculation>
  <scstep>
   <time name="dav">    0.04    0.04</time>
   <time name="total">    0.15    0.16</time>
   <energy>
    <i name="alphaZ">      4.14761118 </i>
    <i name="ewald">    -11.00686036 </i>
    <i name="hartreedc">   -662.85041711 </i>
    <i name="XCdc">     43.44659932 </i>
    <i name="pawpsdc">   1576.46814447 </i>
    <i name="pawaedc">  -1564.90892972 </i>
    <i name="eentropy">     -0.00000000 </i>
    <i name="bandstr">   -150.99506084 </i>
    <i name="atom">    739.11087146 </i>
    <i name="e_fr_energy">    -26.58804161 </i>
    <i name="e_wo_entrp">    -26.58804161 </i>
    <i name="e_0_energy">    -26.58804161 </i>
   </energy>
  </scstep>
  <scstep>
   <time name="diag">    0.01    0.01</time>
   <time name="diis">    0.02    0.02</time>
   <time name="orth">    0.00    0.00</time>
   <time name="total">    0.14    0.15</time>
   <energy>
    <i name="e_fr_energy">    -26.58804161 </i>
    <i name="e_wo_entrp">    -26.58804161 </i>
    <i name="e_0_energy">    -26.58804161 </i>
   </energy>
  </scstep>
  <scstep>
   <time name="diag">    0.01    0.01</time>
   <time name="diis">    0.02    0.02</time>
   <time name="orth">    0.00    0.00</time>
   <time name="total">    0.15    0.15</time>
   <energy>
    <i name="e_fr_energy">    -26.58804161 </i>
    <i name="e_wo_entrp">    -26.58804161 </i>
    <i name="e_0_energy">    -26.58804161 </i>
   </energy>
  </scstep>
  <scstep>
   <time name="diag">    0.01    0.01</time>
   <time name="diis">    0.02    0.02</time>
   <time name="orth">    0.00    0.00</time>
   <time name="total">    0.14    0.15</time>
   <energy>
    <i name="e_fr_energy">    -26.58804161 </i>
    <i name="e_wo_entrp">    -26.58804161 </i>
    <i name="e_0_energy">    -26.58804161 </i>
   </energy>
  </scstep>
  <scstep>
   <time name="diag">    0.01    0.01</time>
   <time name="diis">    0.02    0.02</time>
   <time name="orth">    0.00    0.00</time>
   <time name="total">    0.13    0.13</time>
   <energy>
    <i name="alphaZ">      4.14761118 </i>
    <i name="ewald">    -11.00686036 </i>
    <i name="hartreedc">   -662.85041222 </i>
    <i name="XCdc">     43.44659905 </i>
    <i name="pawpsdc">   1576.46798600 </i>
    <i name="pawaedc">  -1564.90877119 </i>
    <i name="eentropy">     -0.00000000 </i>
    <i name="bandstr">   -150.99506552 </i>
    <i name="atom">    739.11087146 </i>
    <i name="e_fr_energy">    -26.58804161 </i>
    <i name="e_wo_entrp">    -26.58804161 </i>
    <i name="e_0_energy">    -26.58804161 </i>
   </energy>
  </scstep>
  <structure>
   <crystal>
    <varray name="basis" >
     <v>       2.92466573       1.86865688       0.12023405 </v>
     <v>       2.49728945       5.67399098       0.51975001 </v>
     <v>       0.09036228       0.01885485       6.50595175 </v>
    </varray>
    <i name="volume">     77.60578341 </i>
    <varray name="rec_basis" >
     <v>       0.47554332      -0.20875092      -0.00599992 </v>
     <v>      -0.15662653       0.24504449       0.00146525 </v>
     <v>       0.00372430      -0.01571836       0.15369924 </v>
    </varray>
   </crystal>
   <varray name="positions" >
    <v>       0.46772997       0.53775121       0.50003904 </v>
    <v>       0.27969070       0.85596401       0.50020604 </v>
    <v>      -0.00209877       0.54967454       0.49990567 </v>
    <v>       0.52252631       0.20877985       0.49984924 </v>
   </varray>
  </structure>
  <varray name="forces" >
   <v>       0.00948703       0.00607751      -0.00222887 </v>
   <v>      -0.02529028      -0.01831802      -0.02016467 </v>
   <v>       0.01578240      -0.02830323       0.01332472 </v>
   <v>       0.00002085       0.04054374       0.00906882 </v>
  </varray>
  <varray name="stress" >
   <v>      -1.08616880       0.09268722       0.05907480 </v>
   <v>       0.09268684       0.18147123      -0.31443570 </v>
   <v>       0.05907480      -0.31443451       0.32925489 </v>
  </varray>
  <energy>
   <i name="e_fr_energy">    -26.71939011 </i>
   <i name="e_wo_entrp">    -26.71939011 </i>
   <i name="e_0_energy">     -0.00000000 </i>
  </energy>
  <time name="totalsc">    1.49    1.50</time>
 </calculation>
 <calculation>
  <scstep>
   <time name="dav">    0.04    0.04</time>
   <time name="total">    0.15    0.15</time>
   <energy>
    <i name="alphaZ">      4.14761119 </i>
    <i name="ewald">    -11.00686497 </i>
    <i name="hartreedc">   -662.85040929 </i>
    <i name="XCdc">     43.44659911 </i>
    <i name="pawpsdc">   1576.46798585 </i>
    <i name="pawaedc">  -1564.90877104 </i>
    <i name="eentropy">     -0.00000000 </i>
    <i name="bandstr">   -150.99506391 </i>
    <i name="atom">    739.11087146 </i>
    <i name="e_fr_energy">    -26.58804161 </i>
    <i name="e_wo_entrp">    -26.58804161 </i>
    <i name="e_0_energy">    -26.58804161 </i>
   </energy>
  </scstep>
  <scstep>
   <time name="diag">    0.01    0.01</time>
   <time name="diis">    0.02    0.02</time>
   <time name="orth">    0.00    0.00</time>
   <time name="total">    0.14    0.15</time>
   <energy>
    <i name="e_fr_energy">    -26.58804161 </i>
    <i name="e_wo_entrp">    -26.58804161 </i>
    <i name="e_0_energy">    -26.58804161 </i>
   </energy>
  </scstep>
  <scstep>
   <time name="diag">    0.01    0.01</time>
   <time name="diis">    0.02    0.02</time>
   <time name="orth">    0.00    0.00</time>
   <time name="total">    0.15    0.15</time>
   <energy>
    <i name="e_fr_energy">    -26.58804161 </i>
    <i name="e_wo_entrp">    -26.58804161 </i>
    <i name="e_0_energy">    -26.58804161 </i>
   </energy>
  </scstep>
  <scstep>
   <time name="diag">    0.01    0.01</time>
   <time name="diis">    0.02    0.02</time>
   <time name="orth">    0.00    0.00</time>
   <time name="total">    0.14    0.14</time>
   <energy>
    <i name="e_fr_energy">    -26.58804161 </i>
    <i name="e_wo_entrp">    -26.58804161 </i>
    <i name="e_0_energy">    -26.58804161 </i>
   </energy>
  </scstep>
  <scstep>
   <time name="diag">    0.01    0.01</time>
   <time name="diis">    0.02    0.02</time>
   <time name="orth">    0.00    0.00</time>
   <time name="total">    0.13    0.13</time>
   <energy>
    <i name="alphaZ">      4.14761119 </i>
    <i name="ewald">    -11.00686497 </i>
    <i name="hartreedc">   -662.85041040 </i>
    <i name="XCdc">     43.44659926 </i>
    <i name="pawpsdc">   1576.46851635 </i>
    <i name="pawaedc">  -1564.90930162 </i>
    <i name="eentropy">     -0.00000000 </i>
    <i name="bandstr">   -150.99506288 </i>
    <i name="atom">    739.11087146 </i>
    <i name="e_fr_energy">    -26.58804161 </i>
    <i name="e_wo_entrp">    -26.58804161 </i>
    <i name="e_0_energy">    -26.58804161 </i>
   </energy>
  </scstep>
  <structure>
   <crystal>
    <varray name="basis" >
     <v>       2.92466573       1.86865688       0.12023405 </v>
     <v>       2.49728945       5.67399099       0.51975001 </v>
     <v>       0.09036228       0.01885486       6.50595172 </v>
    </varray>
    <i name="volume">     77.60578317 </i>
    <varray name="rec_basis" >
     <v>       0.47554332      -0.20875092      -0.00599992 </v>
     <v>      -0.15662653       0.24504449       0.00146525 </v>
     <v>       0.00372430      -0.01571836       0.15369924 </v>
    </varray>
   </crystal>
   <varray name="positions" >
    <v>       0.46772997       0.53775121       0.50003904 </v>
    <v>       0.27969070       0.85596401       0.50020604 </v>
    <v>      -0.00209877       0.54967454       0.49990567 </v>
    <v>       0.52252631       0.20877985       0.49984924 </v>
   </varray>
  </structure>
  <varray name="forces" >
   <v>       0.00949212       0.00607930      -0.00222863 </v>
   <v>      -0.02529242      -0.01832147      -0.02016314 </v>
   <v>       0.01578168      -0.02830269       0.01332213 </v>
   <v>       0.00001861       0.04054487       0.00906964 </v>
  </varray>
  <varray name="stress" >
   <v>      -1.08603087       0.09270796       0.05908612 </v>
   <v>       0.09270773       0.18166654      -0.31441942 </v>
   <v>       0.05908663      -0.31441923       0.32937714 </v>
  </varray>
  <energy>
   <i name="e_fr_energy">    -26.71939011 </i>
   <i name="e_wo_entrp">    -26.71939011 </i>
   <i name="e_0_energy">     -0.00000000 </i>
  </energy>
  <time name="totalsc">    4.18    4.23</time>
 </calculation>
 <calculation>
  <scstep>
   <time name="dav">    0.04    0.04</time>
   <time name="total">    0.15    0.16</time>
   <energy>
    <i name="alphaZ">      4.14761119 </i>
    <i name="ewald">    -11.00686728 </i>
    <i name="hartreedc">   -662.85040900 </i>
    <i name="XCdc">     43.44659930 </i>
    <i name="pawpsdc">   1576.46851658 </i>
    <i name="pawaedc">  -1564.90930184 </i>
    <i name="eentropy">     -0.00000000 </i>
    <i name="bandstr">   -150.99506202 </i>
    <i name="atom">    739.11087146 </i>
    <i name="e_fr_energy">    -26.58804161 </i>
    <i name="e_wo_entrp">    -26.58804161 </i>
    <i name="e_0_energy">    -26.58804161 </i>
   </energy>
  </scstep>
  <scstep>
   <time name="diag">    0.01    0.01</time>
   <time name="diis">    0.02    0.02</time>
   <time name="orth">    0.00    0.00</time>
   <time name="total">    0.14    0.15</time>
   <energy>
    <i name="e_fr_energy">    -26.58804161 </i>
    <i name="e_wo_entrp">    -26.58804161 </i>
    <i name="e_0_energy">    -26.58804161 </i>
   </energy>
  </scstep>
  <scstep>
   <time name="diag">    0.01    0.01</time>
   <time name="diis">    0.02    0.02</time>
   <time name="orth">    0.00    0.00</time>
   <time name="total">    0.14    0.14</time>
   <energy>
    <i name="e_fr_energy">    -26.58804161 </i>
    <i name="e_wo_entrp">    -26.58804161 </i>
    <i name="e_0_energy">    -26.58804161 </i>
   </energy>
  </scstep>
  <scstep>
   <time name="diag">    0.01    0.01</time>
   <time name="diis">    0.02    0.02</time>
   <time name="orth">    0.00    0.00</time>
   <time name="total">    0.15    0.15</time>
   <energy>
    <i name="e_fr_energy">    -26.58804161 </i>
    <i name="e_wo_entrp">    -26.58804161 </i>
    <i name="e_0_energy">    -26.58804161 </i>
   </energy>
  </scstep>
  <scstep>
   <time name="diag">    0.01    0.01</time>
   <time name="diis">    0.02    0.02</time>
   <time name="orth">    0.00    0.00</time>
   <time name="total">    0.13    0.13</time>
   <energy>
    <i name="alphaZ">      4.14761119 </i>
    <i name="ewald">    -11.00686728 </i>
    <i name="hartreedc">   -662.85040619 </i>
    <i name="XCdc">     43.44659913 </i>
    <i name="pawpsdc">   1576.46831846 </i>
    <i name="pawaedc">  -1564.90910370 </i>
    <i name="eentropy">     -0.00000000 </i>
    <i name="bandstr">   -150.99506467 </i>
    <i name="atom">    739.11087146 </i>
    <i name="e_fr_energy">    -26.58804161 </i>
    <i name="e_wo_entrp">    -26.58804161 </i>
    <i name="e_0_energy">    -26.58804161 </i>
   </energy>
  </scstep>
  <structure>
   <crystal>
    <varray name="basis" >
     <v>       2.92466573       1.86865689       0.12023405 </v>
     <v>       2.49728945       5.67399100       0.51975001 </v>
     <v>       0.09036228       0.01885486       6.50595170 </v>
    </varray>
    <i name="volume">     77.60578305 </i>
    <varray name="rec_basis" >
     <v>       0.47554332      -0.20875092      -0.00599992 </v>
     <v>      -0.15662653       0.24504449       0.00146525 </v>
     <v>       0.00372430      -0.01571836       0.15369924 </v>
    </varray>
   </crystal>
   <varray name="positions" >
    <v>       0.46772997       0.53775121       0.50003904 </v>
    <v>       0.27969070       0.85596401       0.50020604 </v>
    <v>      -0.00209877       0.54967454       0.49990567 </v>
    <v>       0.52252632       0.20877985       0.49984924 </v>
   </varray>
  </structure>
  <varray name="forces" >
   <v>       0.00947994       0.00608342      -0.00222815 </v>
   <v>      -0.02529056      -0.01832468      -0.02016167 </v>
   <v>       0.01578838      -0.02830386       0.01332003 </v>
   <v>       0.00002224       0.04054512       0.00906979 </v>
  </varray>
  <varray name="stress" >
   <v>      -1.08615007       0.09270547       0.05906781 </v>
   <v>       0.09270625       0.18155188      -0.31441584 </v>
   <v>       0.05906723      -0.31441538       0.32924314 </v>
  </varray>
  <energy>
   <i name="e_fr_energy">    -26.71939011 </i>
   <i name="e_wo_entrp">    -26.71939011 </i>
   <i name="e_0_energy">     -0.00000000 </i>
  </energy>
  <time name="totalsc">    1.49    1.50</time>
 </calculation>
 <calculation>
  <scstep>
   <time name="dav">    0.06    0.06</time>
   <time name="total">    0.18    0.18</time>
   <energy>
    <i name="alphaZ">      4.15577183 </i>
    <i name="ewald">    -13.97945269 </i>
    <i name="hartreedc">   -661.05089268 </i>
    <i name="XCdc">     43.48666160 </i>
    <i name="pawpsdc">   1576.46831835 </i>
    <i name="pawaedc">  -1564.90910359 </i>
    <i name="eentropy">     -0.00000000 </i>
    <i name="bandstr">   -149.87014892 </i>
    <i name="atom">    739.11087146 </i>
    <i name="e_fr_energy">    -26.58797464 </i>
    <i name="e_wo_entrp">    -26.58797464 </i>
    <i name="e_0_energy">    -26.58797464 </i>
   </energy>
  </scstep>
  <scstep>
   <time name="diag">    0.01    0.01</time>
   <time name="diis">    0.06    0.06</time>
   <time name="orth">    0.00    0.00</time>
   <time name="total">    0.18    0.18</time>
   <energy>
    <i name="e_fr_energy">    -26.58762431 </i>
    <i name="e_wo_entrp">    -26.58762431 </i>
    <i name="e_0_energy">    -26.58762431 </i>
   </energy>
  </scstep>
  <scstep>
   <time name="diag">    0.01    0.01</time>
   <time name="diis">    0.06    0.06</time>
   <time name="orth">    0.00    0.00</time>
   <time name="total">    0.18    0.18</time>
   <energy>
    <i name="e_fr_energy">    -26.58748432 </i>
    <i name="e_wo_entrp">    -26.58748432 </i>
    <i name="e_0_energy">    -26.58748432 </i>
   </energy>
  </scstep>
  <scstep>
   <time name="diag">    0.01    0.01</time>
   <time name="diis">    0.06    0.06</time>
   <time name="orth">    0.00    0.00</time>
   <time name="total">    0.18    0.18</time>
   <energy>
    <i name="e_fr_energy">    -26.58743122 </i>
    <i name="e_wo_entrp">    -26.58743122 </i>
    <i name="e_0_energy">    -26.58743122 </i>
   </energy>
  </scstep>
  <scstep>
   <time name="diag">    0.01    0.01</time>
   <time name="diis">    0.06    0.06</time>
   <time name="orth">    0.00    0.00</time>
   <time name="total">    0.18    0.18</time>
   <energy>
    <i name="e_fr_energy">    -26.58743910 </i>
    <i name="e_wo_entrp">    -26.58743910 </i>
    <i name="e_0_energy">    -26.58743910 </i>
   </energy>
  </scstep>
  <scstep>
   <time name="diag">    0.01    0.01</time>
   <time name="diis">    0.05    0.05</time>
   <time name="orth">    0.00    0.00</time>
   <time name="total">    0.17    0.17</time>
   <energy>
    <i name="e_fr_energy">    -26.58745521 </i>
    <i name="e_wo_entrp">    -26.58745521 </i>
    <i name="e_0_energy">    -26.58745521 </i>
   </energy>
  </scstep>
  <scstep>
   <time name="diag">    0.01    0.01</time>
   <time name="diis">    0.05    0.05</time>
   <time name="orth">    0.00    0.00</time>
   <time name="total">    0.17    0.17</time>
   <energy>
    <i name="e_fr_energy">    -26.58747912 </i>
    <i name="e_wo_entrp">    -26.58747912 </i>
    <i name="e_0_energy">    -26.58747912 </i>
   </energy>
  </scstep>
  <scstep>
   <time name="diag">    0.01    0.01</time>
   <time name="diis">    0.04    0.04</time>
   <time name="orth">    0.00    0.00</time>
   <time name="total">    0.17    0.17</time>
   <energy>
    <i name="e_fr_energy">    -26.58748721 </i>
    <i name="e_wo_entrp">    -26.58748721 </i>
    <i name="e_0_energy">    -26.58748721 </i>
   </energy>
  </scstep>
  <scstep>
   <time name="diag">    0.01    0.01</time>
   <time name="diis">    0.04    0.04</time>
   <time name="orth">    0.00    0.00</time>
   <time name="total">    0.16    0.16</time>
   <energy>
    <i name="e_fr_energy">    -26.58749367 </i>
    <i name="e_wo_entrp">    -26.58749367 </i>
    <i name="e_0_energy">    -26.58749367 </i>
   </energy>
  </scstep>
  <scstep>
   <time name="diag">    0.01    0.01</time>
   <time name="diis">    0.04    0.04</time>
   <time name="orth">    0.00    0.00</time>
   <time name="total">    0.16    0.16</time>
   <energy>
    <i name="e_fr_energy">    -26.58749559 </i>
    <i name="e_wo_entrp">    -26.58749559 </i>
    <i name="e_0_energy">    -26.58749559 </i>
   </energy>
  </scstep>
  <scstep>
   <time name="diag">    0.01    0.01</time>
   <time name="diis">    0.04    0.04</time>
   <time name="orth">    0.00    0.00</time>
   <time name="total">    0.16    0.16</time>
   <energy>
    <i name="e_fr_energy">    -26.58749775 </i>
    <i name="e_wo_entrp">    -26.58749775 </i>
    <i name="e_0_energy">    -26.58749775 </i>
   </energy>
  </scstep>
  <scstep>
   <time name="diag">    0.01    0.01</time>
   <time name="diis">    0.04    0.04</time>
   <time name="orth">    0.00    0.00</time>
   <time name="total">    0.15    0.15</time>
   <energy>
    <i name="alphaZ">      4.15577183 </i>
    <i name="ewald">    -13.97945269 </i>
    <i name="hartreedc">   -659.99001421 </i>
    <i name="XCdc">     43.44697677 </i>
    <i name="pawpsdc">   1575.95719524 </i>
    <i name="pawaedc">  -1564.39964676 </i>
    <i name="eentropy">     -0.00000000 </i>
    <i name="bandstr">   -150.88920001 </i>
    <i name="atom">    739.11087146 </i>
    <i name="e_fr_energy">    -26.58749837 </i>
    <i name="e_wo_entrp">    -26.58749837 </i>
    <i name="e_0_energy">    -26.58749837 </i>
   </energy>
  </scstep>
  <structure>
   <crystal>
    <varray name="basis" >
     <v>       2.92441110       1.87225683       0.12128018 </v>
     <v>       2.49850284       5.68277347       0.52285823 </v>
     <v>       0.08994370       0.02441464       6.48670458 </v>
    </varray>
    <i name="volume">     77.45338950 </i>
    <varray name="rec_basis" >
     <v>       0.47576623      -0.20864190      -0.00581162 </v>
     <v>      -0.15676287       0.24477796       0.00125236 </v>
     <v>       0.00374053      -0.01582931       0.15416920 </v>
    </varray>
   </crystal>
   <varray name="positions" >
    <v>       0.46593018       0.53863091       0.49985897 </v>
    <v>       0.27972340       0.85555087       0.50048172 </v>
    <v>      -0.00115117       0.54928317       0.49939258 </v>
    <v>       0.52334581       0.20870465       0.50026674 </v>
   </varray>
  </structure>
  <varray name="forces" >
   <v>       0.04745525      -0.02925746      -0.00447643 </v>
   <v>       0.07292364      -0.02222357      -0.06568254 </v>
   <v>      -0.12099623       0.03248191       0.08514708 </v>
   <v>       0.00061734       0.01899912      -0.01498811 </v>
  </varray>
  <varray name="stress" >
   <v>      -1.86859585      -0.69923031       0.01649230 </v>
   <v>      -0.69923028      -0.72506877      -0.40176877 </v>
   <v>       0.01649278      -0.40176878       0.38435176 </v>
  </varray>
  <energy>
   <i name="e_fr_energy">    -26.71891831 </i>
   <i name="e_wo_entrp">    -26.71891831 </i>
   <i name="e_0_energy">     -0.00000000 </i>
  </energy>
