<?xml version="1.0" encoding="ISO-8859-1"?>
<modeling>
 <generator>
  <i name="program" type="string">vasp </i>
  <i name="version" type="string">5.4.4.18Apr17-6-g9f103f2a35  </i>
  <i name="subversion" type="string">(build May 21 2019 18:55:53) complex            parallel </i>
  <i name="platform" type="string">IFC19_impi </i>
  <i name="date" type="string">2025 07 24 </i>
  <i name="time" type="string">09:10:19 </i>
 </generator>
 <incar>
  <i type="string" name="SYSTEM"> Co–organic framework</i>
  <i type="string" name="PREC">accurate   (precision level)</i>
  <i type="string" name="ALGO"> Fast       (SCF minimisation algorithm</i>
  <i type="int" name="ISPIN">     2</i>
  <i type="int" name="NELM">   100</i>
  <i type="int" name="NELMIN">     5</i>
  <i type="int" name="IBRION">     2</i>
  <i name="EDIFF">      0.00000100</i>
  <i name="EDIFFG">     -0.00500000</i>
  <i type="int" name="NSW">  1000</i>
  <i type="int" name="ISIF">     3</i>
  <i type="int" name="ISYM">     0</i>
  <i type="int" name="NBLOCK">     1</i>
  <i name="ENCUT">    520.00000000</i>
  <v name="MAGMOM">      0.00000000      0.00000000      0.00000000      0.00000000</v>
  <i type="string" name="LREAL"> Auto       (Projection operators: autom</i>
  <i type="int" name="ISMEAR">     0</i>
  <i name="SIGMA">      0.05000000</i>
  <i type="logical" name="LWAVE"> F  </i>
  <i type="logical" name="LCHARG"> T  </i>
  <v type="int" name="KPOINT_BSE">    -1     0     0     0</v>
  <i type="int" name="NELM">   100</i>
 </incar>
 <structure name="primitive_cell" >
  <crystal>
   <varray name="basis" >
    <v>      10.00000000       0.00000000       0.00000000 </v>
    <v>       0.00000000      10.00000000       0.00000000 </v>
    <v>       0.00000000       0.00000000      10.00000000 </v>
   </varray>
   <i name="volume">   1000.00000000 </i>
   <varray name="rec_basis" >
    <v>       0.10000000       0.00000000       0.00000000 </v>
    <v>       0.00000000       0.10000000       0.00000000 </v>
    <v>       0.00000000       0.00000000       0.10000000 </v>
   </varray>
  </crystal>
  <varray name="positions" >
   <v>       0.29255160      -0.38929290      -0.50000000 </v>
   <v>       0.26009008      -0.27782320      -0.49999999 </v>
   <v>       0.32542478       0.49687258       0.50000000 </v>
   <v>       0.38978176       0.32241313       0.50000000 </v>
  </varray>
 </structure>
 <varray name="primitive_index" >
  <v type="int" >        1 </v>
  <v type="int" >        2 </v>
  <v type="int" >        3 </v>
  <v type="int" >        4 </v>
 </varray>
 <kpoints>
  <generation param="Gamma">
   <v type="int" name="divisions">       1        1        1 </v>
   <v name="usershift">      0.00000000       0.00000000       0.00000000 </v>
   <v name="genvec1">      1.00000000       0.00000000       0.00000000 </v>
   <v name="genvec2">      0.00000000       1.00000000       0.00000000 </v>
   <v name="genvec3">      0.00000000       0.00000000       1.00000000 </v>
   <v name="shift">      0.00000000       0.00000000       0.00000000 </v>
  </generation>
  <varray name="kpointlist" >
   <v>       0.00000000       0.00000000       0.00000000 </v>
  </varray>
  <varray name="weights" >
   <v>       1.00000000 </v>
  </varray>
 </kpoints>
 <parameters>
  <separator name="general" >
   <i type="string" name="SYSTEM">Co–organic framework</i>
   <i type="logical" name="LCOMPAT"> F  </i>
  </separator>
  <separator name="electronic" >
   <i type="string" name="PREC">accura</i>
   <i name="ENMAX">    520.00000000</i>
   <i name="ENAUG">   1213.93000000</i>
   <i name="EDIFF">      0.00000100</i>
   <i type="int" name="IALGO">    68</i>
   <i type="int" name="IWAVPR">    11</i>
   <i type="int" name="NBANDS">    12</i>
   <i name="NELECT">     15.00000000</i>
   <i type="int" name="TURBO">     0</i>
   <i type="int" name="IRESTART">     0</i>
   <i type="int" name="NREBOOT">     0</i>
   <i type="int" name="NMIN">     0</i>
   <i name="EREF">      0.00000000</i>
   <separator name="electronic smearing" >
    <i type="int" name="ISMEAR">     0</i>
    <i name="SIGMA">      0.05000000</i>
    <i name="KSPACING">      0.50000000</i>
    <i type="logical" name="KGAMMA"> T  </i>
   </separator>
   <separator name="electronic projectors" >
    <i type="logical" name="LREAL"> T  </i>
    <v name="ROPT">     -0.00025000     -0.00025000     -0.00025000</v>
    <i type="int" name="LMAXPAW">  -100</i>
    <i type="int" name="LMAXMIX">     2</i>
    <i type="logical" name="NLSPLINE"> F  </i>
   </separator>
   <separator name="electronic startup" >
    <i type="int" name="ISTART">     0</i>
    <i type="int" name="ICHARG">     2</i>
    <i type="int" name="INIWAV">     1</i>
   </separator>
   <separator name="electronic spin" >
    <i type="int" name="ISPIN">     2</i>
    <i type="logical" name="LNONCOLLINEAR"> F  </i>
    <v name="MAGMOM">      0.00000000      0.00000000      0.00000000      0.00000000</v>
    <i name="NUPDOWN">     -1.00000000</i>
    <i type="logical" name="LSORBIT"> F  </i>
    <v name="SAXIS">      0.00000000      0.00000000      1.00000000</v>
    <i type="logical" name="LSPIRAL"> F  </i>
    <v name="QSPIRAL">      0.00000000      0.00000000      0.00000000</v>
    <i type="logical" name="LZEROZ"> F  </i>
   </separator>
   <separator name="electronic exchange-correlation" >
    <i type="logical" name="LASPH"> F  </i>
    <i type="logical" name="LMETAGGA"> F  </i>
   </separator>
   <separator name="electronic convergence" >
    <i type="int" name="NELM">   100</i>
    <i type="int" name="NELMDL">     0</i>
    <i type="int" name="NELMIN">     5</i>
    <i name="ENINI">    520.00000000</i>
    <separator name="electronic convergence detail" >
     <i type="logical" name="LDIAG"> T  </i>
     <i type="logical" name="LSUBROT"> F  </i>
     <i name="WEIMIN">      0.00100000</i>
     <i name="EBREAK">      0.00000002</i>
     <i name="DEPER">      0.30000000</i>
     <i type="int" name="NRMM">     4</i>
     <i name="TIME">      0.40000000</i>
    </separator>
   </separator>
   <separator name="electronic mixer" >
    <i name="AMIX">      0.40000000</i>
    <i name="BMIX">      1.00000000</i>
    <i name="AMIN">      0.10000000</i>
    <i name="AMIX_MAG">      1.60000000</i>
    <i name="BMIX_MAG">      1.00000000</i>
    <separator name="electronic mixer details" >
     <i type="int" name="IMIX">     4</i>
     <i type="logical" name="MIXFIRST"> F  </i>
     <i type="int" name="MAXMIX">   -45</i>
     <i name="WC">    100.00000000</i>
     <i type="int" name="INIMIX">     1</i>
     <i type="int" name="MIXPRE">     1</i>
     <i type="int" name="MREMOVE">     5</i>
    </separator>
   </separator>
   <separator name="electronic dipolcorrection" >
    <i type="logical" name="LDIPOL"> F  </i>
    <i type="logical" name="LMONO"> F  </i>
    <i type="int" name="IDIPOL">     0</i>
    <i name="EPSILON">      1.00000000</i>
    <v name="DIPOL">   -100.00000000   -100.00000000   -100.00000000</v>
    <i name="EFIELD">      0.00000000</i>
   </separator>
  </separator>
  <separator name="grids" >
   <i type="int" name="NGX">    80</i>
   <i type="int" name="NGY">    80</i>
   <i type="int" name="NGZ">    80</i>
   <i type="int" name="NGXF">   160</i>
   <i type="int" name="NGYF">   160</i>
   <i type="int" name="NGZF">   160</i>
   <i type="logical" name="ADDGRID"> F  </i>
  </separator>
  <separator name="ionic" >
   <i type="int" name="NSW">  1000</i>
   <i type="int" name="IBRION">     2</i>
   <i type="int" name="MDALGO">     0</i>
   <i type="int" name="ISIF">     3</i>
   <i name="PSTRESS">      0.00000000</i>
   <i name="EDIFFG">     -0.00500000</i>
   <i type="int" name="NFREE">     1</i>
   <i name="POTIM">      0.50000000</i>
   <i name="SMASS">     -3.00000000</i>
   <i name="SCALEE">      1.00000000</i>
  </separator>
  <separator name="ionic md" >
   <i name="TEBEG">      0.00010000</i>
   <i name="TEEND">      0.00010000</i>
   <i type="int" name="NBLOCK">     1</i>
   <i type="int" name="KBLOCK">  1000</i>
   <i type="int" name="NPACO">   256</i>
   <i name="APACO">     16.00000000</i>
  </separator>
  <separator name="symmetry" >
   <i type="int" name="ISYM">     0</i>
   <i name="SYMPREC">      0.00001000</i>
  </separator>
  <separator name="dos" >
   <i type="int" name="LORBIT">     0</i>
   <v name="RWIGS">     -1.00000000     -1.00000000     -1.00000000</v>
   <i type="int" name="NEDOS">   301</i>
   <i name="EMIN">     10.00000000</i>
   <i name="EMAX">    -10.00000000</i>
   <i name="EFERMI">      0.00000000</i>
  </separator>
  <separator name="writing" >
   <i type="int" name="NWRITE">     2</i>
   <i type="logical" name="LWAVE"> F  </i>
   <i type="logical" name="LDOWNSAMPLE"> F  </i>
   <i type="logical" name="LCHARG"> T  </i>
   <i type="logical" name="LPARD"> F  </i>
   <i type="logical" name="LVTOT"> F  </i>
   <i type="logical" name="LVHAR"> F  </i>
   <i type="logical" name="LELF"> F  </i>
   <i type="logical" name="LOPTICS"> F  </i>
   <v name="STM">      0.00000000      0.00000000      0.00000000      0.00000000      0.00000000      0.00000000      0.00000000</v>
  </separator>
  <separator name="performance" >
   <i type="int" name="NPAR">     6</i>
   <i type="int" name="NSIM">     4</i>
   <i type="int" name="NBLK">    -1</i>
   <i type="logical" name="LPLANE"> T  </i>
   <i type="logical" name="LSCALAPACK"> F  </i>
   <i type="logical" name="LSCAAWARE"> F  </i>
   <i type="logical" name="LSCALU"> F  </i>
   <i type="logical" name="LASYNC"> F  </i>
   <i type="logical" name="LORBITALREAL"> F  </i>
  </separator>
  <separator name="miscellaneous" >
   <i type="int" name="IDIOT">     3</i>
   <i type="int" name="ISPECIAL">     0</i>
   <i type="logical" name="LMUSIC"> F  </i>
   <v name="POMASS">     16.00000000     12.01100000      1.00000000</v>
   <v name="DARWINR">      0.00000000      0.00000000      0.00000000</v>
   <v name="DARWINV">      1.00000000      1.00000000      1.00000000</v>
   <i type="logical" name="LCORR"> T  </i>
  </separator>
  <i type="logical" name="GGA_COMPAT"> T  </i>
  <i type="logical" name="LBERRY"> F  </i>
  <i type="int" name="ICORELEVEL">     0</i>
  <i type="logical" name="LDAU"> F  </i>
  <i type="int" name="I_CONSTRAINED_M">     0</i>
  <separator name="electronic exchange-correlation" >
   <i type="string" name="GGA">--</i>
   <i type="int" name="VOSKOWN">     0</i>
   <i type="logical" name="LHFCALC"> F  </i>
   <i type="string" name="PRECFOCK"></i>
   <i type="logical" name="LSYMGRAD"> F  </i>
   <i type="logical" name="LHFONE"> F  </i>
   <i type="logical" name="LRHFCALC"> F  </i>
   <i type="logical" name="LTHOMAS"> F  </i>
   <i type="logical" name="LMODELHF"> F  </i>
   <i name="ENCUT4O">     -1.00000000</i>
   <i type="int" name="EXXOEP">     0</i>
   <i type="int" name="FOURORBIT">     0</i>
   <i name="AEXX">      0.00000000</i>
   <i name="HFALPHA">      0.00000000</i>
   <i name="MCALPHA">      0.00000000</i>
   <i name="ALDAX">      1.00000000</i>
   <i name="AGGAX">      1.00000000</i>
   <i name="ALDAC">      1.00000000</i>
   <i name="AGGAC">      1.00000000</i>
   <i type="int" name="NKREDX">     1</i>
   <i type="int" name="NKREDY">     1</i>
   <i type="int" name="NKREDZ">     1</i>
   <i type="logical" name="SHIFTRED"> F  </i>
   <i type="logical" name="ODDONLY"> F  </i>
   <i type="logical" name="EVENONLY"> F  </i>
   <i type="int" name="LMAXFOCK">     0</i>
   <i type="int" name="NMAXFOCKAE">     0</i>
   <i type="logical" name="LFOCKAEDFT"> F  </i>
   <i name="HFSCREEN">      0.00000000</i>
   <i name="HFSCREENC">      0.00000000</i>
   <i type="int" name="NBANDSGWLOW">     0</i>
  </separator>
  <separator name="vdW DFT" >
   <i type="logical" name="LUSE_VDW"> F  </i>
   <i name="Zab_VDW">     -0.84910000</i>
   <i name="PARAM1">      0.12340000</i>
   <i name="PARAM2">      1.00000000</i>
   <i name="PARAM3">      0.00000000</i>
  </separator>
  <separator name="model GW" >
   <i type="int" name="MODEL_GW">     0</i>
   <i name="MODEL_EPS0">    150.00000000</i>
   <i name="MODEL_ALPHA">      1.00000000</i>
  </separator>
  <separator name="linear response parameters" >
   <i type="logical" name="LEPSILON"> F  </i>
   <i type="logical" name="LRPA"> F  </i>
   <i type="logical" name="LNABLA"> F  </i>
   <i type="logical" name="LVEL"> F  </i>
   <i type="int" name="KINTER">     0</i>
   <i name="CSHIFT">      0.10000000</i>
   <i name="OMEGAMAX">     -1.00000000</i>
   <i name="DEG_THRESHOLD">      0.00200000</i>
   <i name="RTIME">     -0.10000000</i>
   <i name="WPLASMAI">      0.00000000</i>
   <v name="DFIELD">      0.00000000      0.00000000      0.00000000</v>
   <v name="WPLASMA">      0.00000000      0.00000000      0.00000000      0.00000000      0.00000000      0.00000000      0.00000000      0.00000000      0.00000000</v>
  </separator>
  <separator name="orbital magnetization" >
   <i type="logical" name="NUCIND"> F  </i>
   <v name="MAGPOS">      0.00000000      0.00000000      0.00000000</v>
   <i type="logical" name="LNICSALL"> T  </i>
   <i type="logical" name="ORBITALMAG"> F  </i>
   <i type="logical" name="LMAGBLOCH"> F  </i>
   <i type="logical" name="LCHIMAG"> F  </i>
   <i type="logical" name="LGAUGE"> T  </i>
   <i type="int" name="MAGATOM">     0</i>
   <v name="MAGDIPOL">      0.00000000      0.00000000      0.00000000</v>
   <v name="AVECCONST">      0.00000000      0.00000000      0.00000000</v>
  </separator>
  <separator name="response functions" >
   <i type="logical" name="LADDER"> F  </i>
   <i type="logical" name="LRPAFORCE"> F  </i>
   <i type="logical" name="LFXC"> F  </i>
   <i type="logical" name="LHARTREE"> T  </i>
   <i type="int" name="IBSE">     0</i>
   <v type="int" name="KPOINT">    -1     0     0     0</v>
   <i type="logical" name="LTCTE"> F  </i>
   <i type="logical" name="LTETE"> F  </i>
   <i type="logical" name="LTRIPLET"> F  </i>
   <i type="logical" name="LFXCEPS"> F  </i>
   <i type="logical" name="LFXHEG"> F  </i>
   <i type="int" name="NATURALO">     2</i>
   <i type="logical" name="L2ORDER"> F  </i>
   <i type="logical" name="LMP2LT"> F  </i>
   <i type="logical" name="LUSEW"> F  </i>
   <i name="ENCUTGW">     -2.00000000</i>
   <i name="ENCUTGWSOFT">     -2.00000000</i>
   <i name="ENCUTLF">     -1.00000000</i>
   <i type="int" name="LMAXMP2">    -1</i>
   <i name="SCISSOR">      0.00000000</i>
   <i type="int" name="NOMEGA">     0</i>
   <i type="int" name="NOMEGAR">     0</i>
   <i type="int" name="NBANDSGW">    -1</i>
   <i type="int" name="NBANDSO">    -1</i>
   <i type="int" name="NBANDSV">    -1</i>
   <i type="int" name="NELM">   100</i>
   <i type="int" name="NELMHF">     1</i>
   <i type="int" name="DIM">     3</i>
   <i type="int" name="ANTIRES">     0</i>
   <i name="OMEGAMAX">    -30.00000000</i>
   <i name="OMEGAMIN">    -30.00000000</i>
   <i name="OMEGATL">   -200.00000000</i>
   <i type="int" name="OMEGAGRID">   140</i>
   <i name="CSHIFT">     -0.10000000</i>
   <i type="logical" name="SELFENERGY"> F  </i>
   <i type="logical" name="LSPECTRAL"> F  </i>
   <i type="logical" name="LSPECTRALGW"> F  </i>
   <i type="logical" name="LSINGLES"> F  </i>
   <i type="logical" name="LFERMIGW"> F  </i>
   <i type="logical" name="ODDONLYGW"> F  </i>
   <i type="logical" name="EVENONLYGW"> F  </i>
   <i type="int" name="NKREDLFX">     1</i>
   <i type="int" name="NKREDLFY">     1</i>
   <i type="int" name="NKREDLFZ">     1</i>
   <i type="int" name="MAXMEM">  2800</i>
   <i type="int" name="TELESCOPE">     0</i>
   <i type="int" name="TAUPAR">     1</i>
   <i type="int" name="OMEGAPAR">    -1</i>
   <i name="LAMBDA">      1.00000000</i>
  </separator>
  <separator name="External order field" >
   <i name="OFIELD_KAPPA">      0.00000000</i>
   <v name="OFIELD_K">      0.00000000      0.00000000      0.00000000</v>
   <i name="OFIELD_Q6_NEAR">      0.00000000</i>
   <i name="OFIELD_Q6_FAR">      0.00000000</i>
   <i name="OFIELD_A">      0.00000000</i>
  </separator>
  <separator name="solvation model" >
   <i type="logical" name="LSOL"> F  </i>
  </separator>
 </parameters>
 <atominfo>
  <atoms>       4 </atoms>
  <types>       3 </types>
  <array name="atoms" >
   <dimension dim="1">ion</dimension>
   <field type="string">element</field>
   <field type="int">atomtype</field>
   <set>
    <rc><c>O </c><c>   1</c></rc>
    <rc><c>C </c><c>   2</c></rc>
    <rc><c>C </c><c>   2</c></rc>
    <rc><c>H </c><c>   3</c></rc>
   </set>
  </array>
  <array name="atomtypes" >
   <dimension dim="1">type</dimension>
   <field type="int">atomspertype</field>
   <field type="string">element</field>
   <field>mass</field>
   <field>valence</field>
   <field type="string">pseudopotential</field>
   <set>
    <rc><c>   1</c><c>O </c><c>     16.00000000</c><c>      6.00000000</c><c>  PAW_PBE O_GW_new 19Mar2012            </c></rc>
    <rc><c>   2</c><c>C </c><c>     12.01100000</c><c>      4.00000000</c><c>  PAW_PBE C_GW_new 19Mar2012            </c></rc>
    <rc><c>   1</c><c>H </c><c>      1.00000000</c><c>      1.00000000</c><c>  PAW_PBE H_h_GW 21Apr2008              </c></rc>
   </set>
  </array>
 </atominfo>
 <structure name="initialpos" >
  <crystal>
   <varray name="basis" >
    <v>      10.00000000       0.00000000       0.00000000 </v>
    <v>       0.00000000      10.00000000       0.00000000 </v>
    <v>       0.00000000       0.00000000      10.00000000 </v>
   </varray>
   <i name="volume">   1000.00000000 </i>
   <varray name="rec_basis" >
    <v>       0.10000000       0.00000000       0.00000000 </v>
    <v>       0.00000000       0.10000000       0.00000000 </v>
    <v>       0.00000000       0.00000000       0.10000000 </v>
   </varray>
  </crystal>
  <varray name="positions" >
   <v>       0.29255160       0.61070710       0.50000000 </v>
   <v>       0.26009008       0.72217680       0.50000001 </v>
   <v>       0.32542478       0.49687258       0.50000000 </v>
   <v>       0.38978176       0.32241313       0.50000000 </v>
  </varray>
 </structure>
 <calculation>
  <scstep>
   <time name="dav">    0.15    0.15</time>
   <time name="total">    0.46    0.46</time>
   <energy>
    <i name="alphaZ">      0.32187861 </i>
    <i name="ewald">    310.49027243 </i>
    <i name="hartreedc">   -875.39660934 </i>
    <i name="XCdc">     40.59945309 </i>
    <i name="pawpsdc">    579.02360314 </i>
    <i name="pawaedc">   -567.32138021 </i>
    <i name="eentropy">     -0.00000437 </i>
    <i name="bandstr">    -98.73255674 </i>
    <i name="atom">    739.11087146 </i>
    <i name="e_fr_energy">    128.09552806 </i>
    <i name="e_wo_entrp">    128.09553243 </i>
    <i name="e_0_energy">    128.09553024 </i>
   </energy>
  </scstep>
  <scstep>
   <time name="dav">    0.19    0.20</time>
   <time name="total">    0.19    0.20</time>
   <energy>
    <i name="e_fr_energy">      4.93457462 </i>
    <i name="e_wo_entrp">      4.93457462 </i>
    <i name="e_0_energy">      4.93457462 </i>
   </energy>
  </scstep>
  <scstep>
   <time name="dav">    0.17    0.17</time>
   <time name="total">    0.17    0.17</time>
   <energy>
    <i name="e_fr_energy">    -16.29189591 </i>
    <i name="e_wo_entrp">    -16.29145883 </i>
    <i name="e_0_energy">    -16.29167737 </i>
   </energy>
  </scstep>
  <scstep>
   <time name="dav">    0.17    0.17</time>
   <time name="total">    0.17    0.17</time>
   <energy>
    <i name="e_fr_energy">    -17.62307036 </i>
    <i name="e_wo_entrp">    -17.57858357 </i>
    <i name="e_0_energy">    -17.60082696 </i>
   </energy>
  </scstep>
  <scstep>
   <time name="dav">    0.19    0.20</time>
   <time name="total">    0.23    0.24</time>
   <energy>
    <i name="e_fr_energy">    -17.63534375 </i>
    <i name="e_wo_entrp">    -17.59076388 </i>
    <i name="e_0_energy">    -17.61305381 </i>
   </energy>
  </scstep>
  <scstep>
   <time name="diag">    0.03    0.03</time>
   <time name="diis">    0.12    0.12</time>
   <time name="orth">    0.00    0.00</time>
   <time name="total">    0.49    0.49</time>
   <energy>
    <i name="e_fr_energy">    -17.25815922 </i>
    <i name="e_wo_entrp">    -17.21624931 </i>
    <i name="e_0_energy">    -17.23720426 </i>
   </energy>
  </scstep>
  <scstep>
   <time name="diag">    0.03    0.03</time>
   <time name="diis">    0.11    0.11</time>
   <time name="orth">    0.00    0.00</time>
   <time name="total">    0.48    0.48</time>
   <energy>
    <i name="e_fr_energy">    -16.39522114 </i>
    <i name="e_wo_entrp">    -16.35150003 </i>
    <i name="e_0_energy">    -16.37336059 </i>
   </energy>
  </scstep>
  <scstep>
   <time name="diag">    0.03    0.03</time>
   <time name="diis">    0.11    0.11</time>
   <time name="orth">    0.00    0.00</time>
   <time name="total">    0.48    0.48</time>
   <energy>
    <i name="e_fr_energy">    -15.90844991 </i>
    <i name="e_wo_entrp">    -15.87755437 </i>
    <i name="e_0_energy">    -15.89300214 </i>
   </energy>
  </scstep>
  <scstep>
   <time name="diag">    0.03    0.03</time>
   <time name="diis">    0.12    0.12</time>
   <time name="orth">    0.00    0.00</time>
   <time name="total">    0.49    0.49</time>
   <energy>
    <i name="e_fr_energy">    -16.02490431 </i>
    <i name="e_wo_entrp">    -15.98688307 </i>
    <i name="e_0_energy">    -16.00589369 </i>
   </energy>
  </scstep>
  <scstep>
   <time name="diag">    0.03    0.03</time>
   <time name="diis">    0.12    0.12</time>
   <time name="orth">    0.00    0.00</time>
   <time name="total">    0.48    0.49</time>
   <energy>
    <i name="e_fr_energy">    -16.17677431 </i>
    <i name="e_wo_entrp">    -16.17623131 </i>
    <i name="e_0_energy">    -16.17650281 </i>
   </energy>
  </scstep>
  <scstep>
   <time name="diag">    0.03    0.03</time>
   <time name="diis">    0.11    0.11</time>
   <time name="orth">    0.00    0.00</time>
   <time name="total">    0.48    0.48</time>
   <energy>
    <i name="e_fr_energy">    -16.17130400 </i>
    <i name="e_wo_entrp">    -16.17101198 </i>
    <i name="e_0_energy">    -16.17115799 </i>
   </energy>
  </scstep>
  <scstep>
   <time name="diag">    0.03    0.03</time>
   <time name="diis">    0.11    0.11</time>
   <time name="orth">    0.00    0.00</time>
   <time name="total">    0.48    0.48</time>
   <energy>
    <i name="e_fr_energy">    -16.12325017 </i>
    <i name="e_wo_entrp">    -16.12187315 </i>
    <i name="e_0_energy">    -16.12256166 </i>
   </energy>
  </scstep>
  <scstep>
   <time name="diag">    0.03    0.03</time>
   <time name="diis">    0.11    0.11</time>
   <time name="orth">    0.00    0.00</time>
   <time name="total">    0.47    0.48</time>
   <energy>
    <i name="e_fr_energy">    -16.26180247 </i>
    <i name="e_wo_entrp">    -16.26180247 </i>
    <i name="e_0_energy">    -16.26180247 </i>
   </energy>
  </scstep>
  <scstep>
   <time name="diag">    0.03    0.03</time>
   <time name="diis">    0.11    0.11</time>
   <time name="orth">    0.00    0.00</time>
   <time name="total">    0.48    0.48</time>
   <energy>
    <i name="e_fr_energy">    -15.88899482 </i>
    <i name="e_wo_entrp">    -15.88899482 </i>
    <i name="e_0_energy">    -15.88899482 </i>
   </energy>
  </scstep>
  <scstep>
   <time name="diag">    0.03    0.03</time>
   <time name="diis">    0.11    0.11</time>
   <time name="orth">    0.00    0.00</time>
   <time name="total">    0.48    0.48</time>
   <energy>
    <i name="e_fr_energy">    -12.06336322 </i>
    <i name="e_wo_entrp">    -12.06336322 </i>
    <i name="e_0_energy">    -12.06336322 </i>
   </energy>
  </scstep>
  <scstep>
   <time name="diag">    0.03    0.03</time>
   <time name="diis">    0.12    0.12</time>
   <time name="orth">    0.00    0.00</time>
   <time name="total">    0.48    0.49</time>
   <energy>
    <i name="e_fr_energy">    -11.79083142 </i>
    <i name="e_wo_entrp">    -11.79083142 </i>
    <i name="e_0_energy">    -11.79083142 </i>
   </energy>
  </scstep>
  <scstep>
   <time name="diag">    0.03    0.03</time>
   <time name="diis">    0.12    0.12</time>
   <time name="orth">    0.00    0.00</time>
   <time name="total">    0.48    0.49</time>
   <energy>
    <i name="e_fr_energy">    -11.39730142 </i>
    <i name="e_wo_entrp">    -11.39730142 </i>
    <i name="e_0_energy">    -11.39730142 </i>
   </energy>
  </scstep>
  <scstep>
   <time name="diag">    0.03    0.03</time>
   <time name="diis">    0.11    0.11</time>
   <time name="orth">    0.00    0.00</time>
   <time name="total">    0.48    0.48</time>
   <energy>
    <i name="e_fr_energy">    -12.24159013 </i>
    <i name="e_wo_entrp">    -12.24159013 </i>
    <i name="e_0_energy">    -12.24159013 </i>
   </energy>
  </scstep>
  <scstep>
   <time name="diag">    0.03    0.03</time>
   <time name="diis">    0.11    0.11</time>
   <time name="orth">    0.00    0.00</time>
   <time name="total">    0.48    0.48</time>
   <energy>
    <i name="e_fr_energy">    -13.49642285 </i>
    <i name="e_wo_entrp">    -13.49642285 </i>
    <i name="e_0_energy">    -13.49642285 </i>
   </energy>
  </scstep>
  <scstep>
   <time name="diag">    0.03    0.03</time>
   <time name="diis">    0.12    0.12</time>
   <time name="orth">    0.00    0.00</time>
   <time name="total">    0.48    0.49</time>
   <energy>
    <i name="e_fr_energy">    -14.44743355 </i>
    <i name="e_wo_entrp">    -14.44743355 </i>
    <i name="e_0_energy">    -14.44743355 </i>
   </energy>
  </scstep>
  <scstep>
   <time name="diag">    0.03    0.03</time>
   <time name="diis">    0.12    0.12</time>
   <time name="orth">    0.00    0.00</time>
   <time name="total">    0.48    0.49</time>
   <energy>
    <i name="e_fr_energy">    -13.08050046 </i>
    <i name="e_wo_entrp">    -13.08050046 </i>
    <i name="e_0_energy">    -13.08050046 </i>
   </energy>
  </scstep>
  <scstep>
   <time name="diag">    0.03    0.03</time>
   <time name="diis">    0.11    0.11</time>
   <time name="orth">    0.00    0.00</time>
   <time name="total">    0.48    0.48</time>
   <energy>
    <i name="e_fr_energy">    -12.56890715 </i>
    <i name="e_wo_entrp">    -12.56890715 </i>
    <i name="e_0_energy">    -12.56890715 </i>
   </energy>
  </scstep>
  <scstep>
   <time name="diag">    0.03    0.03</time>
   <time name="diis">    0.11    0.11</time>
   <time name="orth">    0.00    0.00</time>
   <time name="total">    0.48    0.48</time>
   <energy>
    <i name="e_fr_energy">    -14.74176439 </i>
    <i name="e_wo_entrp">    -14.74176439 </i>
    <i name="e_0_energy">    -14.74176439 </i>
   </energy>
  </scstep>
  <scstep>
   <time name="diag">    0.03    0.03</time>
   <time name="diis">    0.12    0.12</time>
   <time name="orth">    0.00    0.00</time>
   <time name="total">    0.49    0.50</time>
   <energy>
    <i name="e_fr_energy">    -14.78176034 </i>
    <i name="e_wo_entrp">    -14.78176034 </i>
    <i name="e_0_energy">    -14.78176034 </i>
   </energy>
  </scstep>
  <scstep>
   <time name="diag">    0.03    0.03</time>
   <time name="diis">    0.11    0.11</time>
   <time name="orth">    0.00    0.00</time>
   <time name="total">    0.48    0.48</time>
   <energy>
    <i name="e_fr_energy">    -15.08577774 </i>
    <i name="e_wo_entrp">    -15.08577774 </i>
    <i name="e_0_energy">    -15.08577774 </i>
   </energy>
  </scstep>
  <scstep>
   <time name="diag">    0.03    0.03</time>
   <time name="diis">    0.12    0.12</time>
   <time name="orth">    0.00    0.00</time>
   <time name="total">    0.49    0.50</time>
   <energy>
    <i name="e_fr_energy">    -15.12598929 </i>
    <i name="e_wo_entrp">    -15.12598929 </i>
    <i name="e_0_energy">    -15.12598929 </i>
   </energy>
  </scstep>
  <scstep>
   <time name="diag">    0.03    0.03</time>
   <time name="diis">    0.11    0.11</time>
   <time name="orth">    0.00    0.00</time>
   <time name="total">    0.48    0.48</time>
   <energy>
    <i name="e_fr_energy">    -15.20949540 </i>
    <i name="e_wo_entrp">    -15.20949540 </i>
    <i name="e_0_energy">    -15.20949540 </i>
   </energy>
  </scstep>
  <scstep>
   <time name="diag">    0.03    0.03</time>
   <time name="diis">    0.11    0.11</time>
   <time name="orth">    0.00    0.00</time>
   <time name="total">    0.48    0.49</time>
   <energy>
    <i name="e_fr_energy">    -14.55899087 </i>
    <i name="e_wo_entrp">    -14.55899087 </i>
    <i name="e_0_energy">    -14.55899087 </i>
   </energy>
  </scstep>
  <scstep>
   <time name="diag">    0.03    0.03</time>
   <time name="diis">    0.11    0.11</time>
   <time name="orth">    0.00    0.00</time>
   <time name="total">    0.48    0.48</time>
   <energy>
    <i name="e_fr_energy">    -14.51960714 </i>
    <i name="e_wo_entrp">    -14.51960714 </i>
    <i name="e_0_energy">    -14.51960714 </i>
   </energy>
  </scstep>
  <scstep>
   <time name="diag">    0.03    0.03</time>
   <time name="diis">    0.12    0.12</time>
   <time name="orth">    0.00    0.00</time>
   <time name="total">    0.48    0.49</time>
   <energy>
    <i name="e_fr_energy">    -14.34416526 </i>
    <i name="e_wo_entrp">    -14.34416526 </i>
    <i name="e_0_energy">    -14.34416526 </i>
   </energy>
  </scstep>
  <scstep>
   <time name="diag">    0.03    0.03</time>
   <time name="diis">    0.11    0.11</time>
   <time name="orth">    0.00    0.00</time>
   <time name="total">    0.48    0.49</time>
   <energy>
    <i name="e_fr_energy">    -14.29177778 </i>
    <i name="e_wo_entrp">    -14.29177778 </i>
    <i name="e_0_energy">    -14.29177778 </i>
   </energy>
  </scstep>
  <scstep>
   <time name="diag">    0.03    0.03</time>
   <time name="diis">    0.11    0.11</time>
   <time name="orth">    0.00    0.00</time>
   <time name="total">    0.48    0.49</time>
   <energy>
    <i name="e_fr_energy">    -14.17698280 </i>
    <i name="e_wo_entrp">    -14.17698280 </i>
    <i name="e_0_energy">    -14.17698280 </i>
   </energy>
  </scstep>
  <scstep>
   <time name="diag">    0.03    0.03</time>
   <time name="diis">    0.11    0.11</time>
   <time name="orth">    0.00    0.00</time>
   <time name="total">    0.48    0.49</time>
   <energy>
    <i name="e_fr_energy">    -13.37074189 </i>
    <i name="e_wo_entrp">    -13.37074189 </i>
    <i name="e_0_energy">    -13.37074189 </i>
   </energy>
  </scstep>
  <scstep>
   <time name="diag">    0.03    0.03</time>
   <time name="diis">    0.12    0.12</time>
   <time name="orth">    0.00    0.00</time>
   <time name="total">    0.49    0.49</time>
   <energy>
    <i name="e_fr_energy">    -13.22361745 </i>
    <i name="e_wo_entrp">    -13.22361745 </i>
    <i name="e_0_energy">    -13.22361745 </i>
   </energy>
  </scstep>
  <scstep>
   <time name="diag">    0.03    0.03</time>
   <time name="diis">    0.11    0.11</time>
   <time name="orth">    0.00    0.00</time>
   <time name="total">    0.48    0.49</time>
   <energy>
    <i name="e_fr_energy">    -13.57802603 </i>
    <i name="e_wo_entrp">    -13.57802603 </i>
    <i name="e_0_energy">    -13.57802603 </i>
   </energy>
  </scstep>
  <scstep>
   <time name="diag">    0.03    0.03</time>
   <time name="diis">    0.11    0.11</time>
   <time name="orth">    0.00    0.00</time>
   <time name="total">    0.48    0.49</time>
   <energy>
    <i name="e_fr_energy">    -15.07283375 </i>
    <i name="e_wo_entrp">    -15.07283375 </i>
    <i name="e_0_energy">    -15.07283375 </i>
   </energy>
  </scstep>
  <scstep>
   <time name="diag">    0.03    0.03</time>
   <time name="diis">    0.11    0.11</time>
   <time name="orth">    0.00    0.00</time>
   <time name="total">    0.48    0.49</time>
   <energy>
    <i name="e_fr_energy">    -15.78954562 </i>
    <i name="e_wo_entrp">    -15.78954562 </i>
    <i name="e_0_energy">    -15.78954562 </i>
   </energy>
  </scstep>
  <scstep>
   <time name="diag">    0.03    0.03</time>
   <time name="diis">    0.11    0.11</time>
   <time name="orth">    0.00    0.00</time>
   <time name="total">    0.48    0.49</time>
   <energy>
    <i name="e_fr_energy">    -15.76176721 </i>
    <i name="e_wo_entrp">    -15.76176721 </i>
    <i name="e_0_energy">    -15.76176721 </i>
   </energy>
  </scstep>
  <scstep>
   <time name="diag">    0.03    0.03</time>
   <time name="diis">    0.11    0.11</time>
   <time name="orth">    0.00    0.00</time>
   <time name="total">    0.48    0.49</time>
   <energy>
    <i name="e_fr_energy">    -16.38987009 </i>
    <i name="e_wo_entrp">    -16.38987009 </i>
    <i name="e_0_energy">    -16.38987009 </i>
   </energy>
  </scstep>
  <scstep>
   <time name="diag">    0.03    0.03</time>
   <time name="diis">    0.11    0.11</time>
   <time name="orth">    0.00    0.00</time>
   <time name="total">    0.48    0.49</time>
   <energy>
    <i name="e_fr_energy">    -16.65010093 </i>
    <i name="e_wo_entrp">    -16.65010093 </i>
    <i name="e_0_energy">    -16.65010093 </i>
   </energy>
  </scstep>
  <scstep>
   <time name="diag">    0.03    0.03</time>
   <time name="diis">    0.12    0.12</time>
   <time name="orth">    0.00    0.00</time>
   <time name="total">    0.49    0.49</time>
   <energy>
    <i name="e_fr_energy">    -16.74306836 </i>
    <i name="e_wo_entrp">    -16.74306836 </i>
    <i name="e_0_energy">    -16.74306836 </i>
   </energy>
  </scstep>
  <scstep>
   <time name="diag">    0.03    0.03</time>
   <time name="diis">    0.12    0.12</time>
   <time name="orth">    0.00    0.00</time>
   <time name="total">    0.49    0.50</time>
   <energy>
    <i name="e_fr_energy">    -16.77768026 </i>
    <i name="e_wo_entrp">    -16.77768026 </i>
    <i name="e_0_energy">    -16.77768026 </i>
   </energy>
  </scstep>
  <scstep>
   <time name="diag">    0.03    0.03</time>
   <time name="diis">    0.12    0.12</time>
   <time name="orth">    0.00    0.00</time>
   <time name="total">    0.49    0.49</time>
   <energy>
    <i name="e_fr_energy">    -16.77404480 </i>
    <i name="e_wo_entrp">    -16.77404480 </i>
    <i name="e_0_energy">    -16.77404480 </i>
   </energy>
  </scstep>
  <scstep>
   <time name="diag">    0.03    0.03</time>
   <time name="diis">    0.11    0.11</time>
   <time name="orth">    0.00    0.00</time>
   <time name="total">    0.48    0.49</time>
   <energy>
    <i name="e_fr_energy">    -16.83715463 </i>
    <i name="e_wo_entrp">    -16.83715463 </i>
    <i name="e_0_energy">    -16.83715463 </i>
   </energy>
  </scstep>
  <scstep>
   <time name="diag">    0.03    0.03</time>
   <time name="diis">    0.12    0.12</time>
   <time name="orth">    0.00    0.00</time>
   <time name="total">    0.49    0.50</time>
   <energy>
    <i name="e_fr_energy">    -16.83933114 </i>
    <i name="e_wo_entrp">    -16.83933114 </i>
    <i name="e_0_energy">    -16.83933114 </i>
   </energy>
  </scstep>
  <scstep>
   <time name="diag">    0.03    0.03</time>
   <time name="diis">    0.11    0.11</time>
   <time name="orth">    0.00    0.00</time>
   <time name="total">    0.48    0.49</time>
   <energy>
    <i name="e_fr_energy">    -16.80484046 </i>
    <i name="e_wo_entrp">    -16.80484046 </i>
    <i name="e_0_energy">    -16.80484046 </i>
   </energy>
  </scstep>
  <scstep>
   <time name="diag">    0.03    0.03</time>
   <time name="diis">    0.11    0.11</time>
   <time name="orth">    0.00    0.00</time>
   <time name="total">    0.49    0.49</time>
   <energy>
    <i name="e_fr_energy">    -16.76016186 </i>
    <i name="e_wo_entrp">    -16.76016186 </i>
    <i name="e_0_energy">    -16.76016186 </i>
   </energy>
  </scstep>
  <scstep>
   <time name="diag">    0.03    0.03</time>
   <time name="diis">    0.12    0.12</time>
   <time name="orth">    0.00    0.00</time>
   <time name="total">    0.49    0.50</time>
   <energy>
    <i name="e_fr_energy">    -16.65871585 </i>
    <i name="e_wo_entrp">    -16.65871585 </i>
    <i name="e_0_energy">    -16.65871585 </i>
   </energy>
  </scstep>
  <scstep>
   <time name="diag">    0.03    0.03</time>
   <time name="diis">    0.12    0.12</time>
   <time name="orth">    0.00    0.00</time>
   <time name="total">    0.49    0.50</time>
   <energy>
    <i name="e_fr_energy">    -16.47508492 </i>
    <i name="e_wo_entrp">    -16.47508492 </i>
    <i name="e_0_energy">    -16.47508492 </i>
   </energy>
  </scstep>
  <scstep>
   <time name="diag">    0.03    0.03</time>
   <time name="diis">    0.12    0.12</time>
   <time name="orth">    0.00    0.00</time>
   <time name="total">    0.50    0.50</time>
   <energy>
    <i name="e_fr_energy">    -16.45974068 </i>
    <i name="e_wo_entrp">    -16.45974068 </i>
    <i name="e_0_energy">    -16.45974068 </i>
   </energy>
  </scstep>
  <scstep>
   <time name="diag">    0.03    0.03</time>
   <time name="diis">    0.11    0.11</time>
   <time name="orth">    0.00    0.00</time>
   <time name="total">    0.48    0.49</time>
   <energy>
    <i name="e_fr_energy">    -16.44385739 </i>
    <i name="e_wo_entrp">    -16.44385739 </i>
    <i name="e_0_energy">    -16.44385739 </i>
   </energy>
  </scstep>
  <scstep>
   <time name="diag">    0.03    0.03</time>
   <time name="diis">    0.11    0.11</time>
   <time name="orth">    0.00    0.00</time>
   <time name="total">    0.49    0.49</time>
   <energy>
    <i name="e_fr_energy">    -16.37038996 </i>
    <i name="e_wo_entrp">    -16.37038996 </i>
    <i name="e_0_energy">    -16.37038996 </i>
   </energy>
  </scstep>
  <scstep>
   <time name="diag">    0.03    0.03</time>
   <time name="diis">    0.12    0.12</time>
   <time name="orth">    0.00    0.00</time>
   <time name="total">    0.49    0.51</time>
   <energy>
    <i name="e_fr_energy">    -16.30836559 </i>
    <i name="e_wo_entrp">    -16.30836559 </i>
    <i name="e_0_energy">    -16.30836559 </i>
   </energy>
  </scstep>
  <scstep>
   <time name="diag">    0.03    0.03</time>
   <time name="diis">    0.11    0.11</time>
   <time name="orth">    0.00    0.00</time>
   <time name="total">    0.48    0.49</time>
   <energy>
    <i name="e_fr_energy">    -16.33170987 </i>
    <i name="e_wo_entrp">    -16.33170987 </i>
    <i name="e_0_energy">    -16.33170987 </i>
   </energy>
  </scstep>
  <scstep>
   <time name="diag">    0.03    0.03</time>
   <time name="diis">    0.11    0.11</time>
   <time name="orth">    0.00    0.00</time>
   <time name="total">    0.49    0.49</time>
   <energy>
    <i name="e_fr_energy">    -16.46031506 </i>
    <i name="e_wo_entrp">    -16.46031506 </i>
    <i name="e_0_energy">    -16.46031506 </i>
   </energy>
  </scstep>
  <scstep>
   <time name="diag">    0.03    0.03</time>
   <time name="diis">    0.12    0.12</time>
   <time name="orth">    0.00    0.00</time>
   <time name="total">    0.49    0.50</time>
   <energy>
    <i name="e_fr_energy">    -16.66126887 </i>
    <i name="e_wo_entrp">    -16.66126887 </i>
    <i name="e_0_energy">    -16.66126887 </i>
   </energy>
  </scstep>
  <scstep>
   <time name="diag">    0.03    0.03</time>
   <time name="diis">    0.12    0.12</time>
   <time name="orth">    0.00    0.00</time>
   <time name="total">    0.49    0.50</time>
   <energy>
    <i name="e_fr_energy">    -16.65293052 </i>
    <i name="e_wo_entrp">    -16.65293052 </i>
    <i name="e_0_energy">    -16.65293052 </i>
   </energy>
  </scstep>
  <scstep>
   <time name="diag">    0.03    0.03</time>
   <time name="diis">    0.12    0.12</time>
   <time name="orth">    0.00    0.00</time>
   <time name="total">    0.49    0.50</time>
   <energy>
    <i name="e_fr_energy">    -16.65079813 </i>
    <i name="e_wo_entrp">    -16.65079813 </i>
    <i name="e_0_energy">    -16.65079813 </i>
   </energy>
  </scstep>
  <scstep>
   <time name="diag">    0.03    0.03</time>
   <time name="diis">    0.11    0.11</time>
   <time name="orth">    0.00    0.00</time>
   <time name="total">    0.49    0.49</time>
   <energy>
    <i name="e_fr_energy">    -16.64277325 </i>
    <i name="e_wo_entrp">    -16.64277325 </i>
    <i name="e_0_energy">    -16.64277325 </i>
   </energy>
  </scstep>
  <scstep>
   <time name="diag">    0.03    0.03</time>
   <time name="diis">    0.11    0.11</time>
   <time name="orth">    0.00    0.00</time>
   <time name="total">    0.49    0.50</time>
   <energy>
    <i name="e_fr_energy">    -16.68247172 </i>
    <i name="e_wo_entrp">    -16.68247172 </i>
    <i name="e_0_energy">    -16.68247172 </i>
   </energy>
  </scstep>
  <scstep>
   <time name="diag">    0.03    0.03</time>
   <time name="diis">    0.11    0.11</time>
   <time name="orth">    0.00    0.00</time>
   <time name="total">    0.48    0.49</time>
   <energy>
    <i name="e_fr_energy">    -16.76702142 </i>
    <i name="e_wo_entrp">    -16.76702142 </i>
    <i name="e_0_energy">    -16.76702142 </i>
   </energy>
  </scstep>
  <scstep>
   <time name="diag">    0.03    0.03</time>
   <time name="diis">    0.12    0.12</time>
   <time name="orth">    0.00    0.00</time>
   <time name="total">    0.50    0.50</time>
   <energy>
    <i name="e_fr_energy">    -16.80019197 </i>
    <i name="e_wo_entrp">    -16.80019197 </i>
    <i name="e_0_energy">    -16.80019197 </i>
   </energy>
  </scstep>
  <scstep>
   <time name="diag">    0.03    0.03</time>
   <time name="diis">    0.12    0.12</time>
   <time name="orth">    0.00    0.00</time>
   <time name="total">    0.49    0.50</time>
   <energy>
    <i name="e_fr_energy">    -16.79505622 </i>
    <i name="e_wo_entrp">    -16.79505622 </i>
    <i name="e_0_energy">    -16.79505622 </i>
   </energy>
  </scstep>
  <scstep>
   <time name="diag">    0.03    0.03</time>
   <time name="diis">    0.10    0.10</time>
   <time name="orth">    0.00    0.00</time>
   <time name="total">    0.48    0.48</time>
   <energy>
    <i name="e_fr_energy">    -16.79551813 </i>
    <i name="e_wo_entrp">    -16.79551813 </i>
    <i name="e_0_energy">    -16.79551813 </i>
   </energy>
  </scstep>
  <scstep>
   <time name="diag">    0.03    0.03</time>
   <time name="diis">    0.10    0.10</time>
   <time name="orth">    0.00    0.00</time>
   <time name="total">    0.47    0.48</time>
   <energy>
    <i name="e_fr_energy">    -16.79817598 </i>
    <i name="e_wo_entrp">    -16.79817598 </i>
    <i name="e_0_energy">    -16.79817598 </i>
   </energy>
  </scstep>
  <scstep>
   <time name="diag">    0.03    0.03</time>
   <time name="diis">    0.11    0.11</time>
   <time name="orth">    0.00    0.00</time>
   <time name="total">    0.49    0.49</time>
   <energy>
    <i name="e_fr_energy">    -16.85031269 </i>
    <i name="e_wo_entrp">    -16.85031269 </i>
    <i name="e_0_energy">    -16.85031269 </i>
   </energy>
  </scstep>
  <scstep>
   <time name="diag">    0.03    0.03</time>
   <time name="diis">    0.12    0.12</time>
   <time name="orth">    0.00    0.00</time>
   <time name="total">    0.50    0.50</time>
   <energy>
    <i name="e_fr_energy">    -16.85386390 </i>
    <i name="e_wo_entrp">    -16.85386390 </i>
    <i name="e_0_energy">    -16.85386390 </i>
   </energy>
  </scstep>
  <scstep>
   <time name="diag">    0.03    0.03</time>
   <time name="diis">    0.12    0.12</time>
   <time name="orth">    0.00    0.00</time>
   <time name="total">    0.49    0.50</time>
   <energy>
    <i name="e_fr_energy">    -16.85379469 </i>
    <i name="e_wo_entrp">    -16.85379469 </i>
    <i name="e_0_energy">    -16.85379469 </i>
   </energy>
  </scstep>
  <scstep>
   <time name="diag">    0.03    0.03</time>
   <time name="diis">    0.11    0.11</time>
   <time name="orth">    0.00    0.00</time>
   <time name="total">    0.48    0.49</time>
   <energy>
    <i name="e_fr_energy">    -16.85435387 </i>
    <i name="e_wo_entrp">    -16.85435387 </i>
    <i name="e_0_energy">    -16.85435387 </i>
   </energy>
  </scstep>
  <scstep>
   <time name="diag">    0.03    0.03</time>
   <time name="diis">    0.12    0.12</time>
   <time name="orth">    0.00    0.00</time>
   <time name="total">    0.49    0.50</time>
   <energy>
    <i name="e_fr_energy">    -16.85521197 </i>
    <i name="e_wo_entrp">    -16.85521197 </i>
    <i name="e_0_energy">    -16.85521197 </i>
   </energy>
  </scstep>
  <scstep>
   <time name="diag">    0.03    0.03</time>
   <time name="diis">    0.11    0.11</time>
   <time name="orth">    0.00    0.00</time>
   <time name="total">    0.48    0.49</time>
   <energy>
    <i name="e_fr_energy">    -16.85983241 </i>
    <i name="e_wo_entrp">    -16.85983240 </i>
    <i name="e_0_energy">    -16.85983241 </i>
   </energy>
  </scstep>
  <scstep>
   <time name="diag">    0.03    0.03</time>
   <time name="diis">    0.11    0.11</time>
   <time name="orth">    0.00    0.00</time>
   <time name="total">    0.49    0.49</time>
   <energy>
    <i name="e_fr_energy">    -16.85918874 </i>
    <i name="e_wo_entrp">    -16.85918874 </i>
    <i name="e_0_energy">    -16.85918874 </i>
   </energy>
  </scstep>
  <scstep>
   <time name="diag">    0.03    0.03</time>
   <time name="diis">    0.11    0.11</time>
   <time name="orth">    0.00    0.00</time>
   <time name="total">    0.48    0.50</time>
   <energy>
    <i name="e_fr_energy">    -16.85895313 </i>
    <i name="e_wo_entrp">    -16.85895313 </i>
    <i name="e_0_energy">    -16.85895313 </i>
   </energy>
  </scstep>
  <scstep>
   <time name="diag">    0.03    0.03</time>
   <time name="diis">    0.11    0.12</time>
   <time name="orth">    0.00    0.00</time>
   <time name="total">    0.49    0.50</time>
   <energy>
    <i name="e_fr_energy">    -16.85952053 </i>
    <i name="e_wo_entrp">    -16.85952053 </i>
    <i name="e_0_energy">    -16.85952053 </i>
   </energy>
  </scstep>
  <scstep>
   <time name="diag">    0.03    0.03</time>
   <time name="diis">    0.11    0.11</time>
   <time name="orth">    0.00    0.00</time>
   <time name="total">    0.49    0.49</time>
   <energy>
    <i name="e_fr_energy">    -16.85933431 </i>
    <i name="e_wo_entrp">    -16.85933431 </i>
    <i name="e_0_energy">    -16.85933431 </i>
   </energy>
  </scstep>
  <scstep>
   <time name="diag">    0.03    0.03</time>
   <time name="diis">    0.11    0.11</time>
   <time name="orth">    0.00    0.00</time>
   <time name="total">    0.48    0.49</time>
   <energy>
    <i name="e_fr_energy">    -16.85912846 </i>
    <i name="e_wo_entrp">    -16.85912846 </i>
    <i name="e_0_energy">    -16.85912846 </i>
   </energy>
  </scstep>
  <scstep>
   <time name="diag">    0.03    0.03</time>
   <time name="diis">    0.10    0.10</time>
   <time name="orth">    0.00    0.00</time>
   <time name="total">    0.47    0.48</time>
   <energy>
    <i name="e_fr_energy">    -16.85906435 </i>
    <i name="e_wo_entrp">    -16.85906435 </i>
    <i name="e_0_energy">    -16.85906435 </i>
   </energy>
  </scstep>
  <scstep>
   <time name="diag">    0.03    0.03</time>
   <time name="diis">    0.10    0.10</time>
   <time name="orth">    0.00    0.00</time>
   <time name="total">    0.47    0.48</time>
   <energy>
    <i name="e_fr_energy">    -16.85899206 </i>
    <i name="e_wo_entrp">    -16.85899206 </i>
    <i name="e_0_energy">    -16.85899206 </i>
   </energy>
  </scstep>
  <scstep>
   <time name="diag">    0.03    0.03</time>
   <time name="diis">    0.09    0.09</time>
   <time name="orth">    0.00    0.00</time>
   <time name="total">    0.47    0.47</time>
   <energy>
    <i name="e_fr_energy">    -16.85897799 </i>
    <i name="e_wo_entrp">    -16.85897799 </i>
    <i name="e_0_energy">    -16.85897799 </i>
   </energy>
  </scstep>
  <scstep>
   <time name="diag">    0.03    0.03</time>
   <time name="diis">    0.11    0.11</time>
   <time name="orth">    0.00    0.00</time>
   <time name="total">    0.49    0.49</time>
   <energy>
    <i name="e_fr_energy">    -16.85888183 </i>
    <i name="e_wo_entrp">    -16.85888183 </i>
    <i name="e_0_energy">    -16.85888183 </i>
   </energy>
  </scstep>
  <scstep>
   <time name="diag">    0.03    0.03</time>
   <time name="diis">    0.11    0.11</time>
   <time name="orth">    0.00    0.00</time>
   <time name="total">    0.48    0.49</time>
   <energy>
    <i name="e_fr_energy">    -16.85981025 </i>
    <i name="e_wo_entrp">    -16.85981025 </i>
    <i name="e_0_energy">    -16.85981025 </i>
   </energy>
  </scstep>
  <scstep>
   <time name="diag">    0.03    0.03</time>
   <time name="diis">    0.11    0.11</time>
   <time name="orth">    0.00    0.00</time>
   <time name="total">    0.49    0.49</time>
   <energy>
    <i name="e_fr_energy">    -16.86042384 </i>
    <i name="e_wo_entrp">    -16.86042384 </i>
    <i name="e_0_energy">    -16.86042384 </i>
   </energy>
  </scstep>
  <scstep>
   <time name="diag">    0.03    0.03</time>
   <time name="diis">    0.12    0.12</time>
   <time name="orth">    0.00    0.00</time>
   <time name="total">    0.49    0.50</time>
   <energy>
    <i name="e_fr_energy">    -16.86069556 </i>
    <i name="e_wo_entrp">    -16.86069556 </i>
    <i name="e_0_energy">    -16.86069556 </i>
   </energy>
  </scstep>
  <scstep>
   <time name="diag">    0.03    0.03</time>
   <time name="diis">    0.11    0.11</time>
   <time name="orth">    0.00    0.00</time>
   <time name="total">    0.49    0.49</time>
   <energy>
    <i name="e_fr_energy">    -16.86052507 </i>
    <i name="e_wo_entrp">    -16.86052507 </i>
    <i name="e_0_energy">    -16.86052507 </i>
   </energy>
  </scstep>
  <scstep>
   <time name="diag">    0.03    0.03</time>
   <time name="diis">    0.12    0.12</time>
   <time name="orth">    0.00    0.00</time>
   <time name="total">    0.50    0.51</time>
   <energy>
    <i name="e_fr_energy">    -16.86047838 </i>
    <i name="e_wo_entrp">    -16.86047837 </i>
    <i name="e_0_energy">    -16.86047838 </i>
   </energy>
  </scstep>
  <scstep>
   <time name="diag">    0.03    0.03</time>
   <time name="diis">    0.11    0.11</time>
   <time name="orth">    0.00    0.00</time>
   <time name="total">    0.48    0.49</time>
   <energy>
    <i name="e_fr_energy">    -16.86074037 </i>
    <i name="e_wo_entrp">    -16.86074037 </i>
    <i name="e_0_energy">    -16.86074037 </i>
   </energy>
  </scstep>
  <scstep>
   <time name="diag">    0.03    0.03</time>
   <time name="diis">    0.12    0.12</time>
   <time name="orth">    0.00    0.00</time>
   <time name="total">    0.49    0.50</time>
   <energy>
    <i name="e_fr_energy">    -16.86081016 </i>
    <i name="e_wo_entrp">    -16.86081016 </i>
    <i name="e_0_energy">    -16.86081016 </i>
   </energy>
  </scstep>
  <scstep>
   <time name="diag">    0.03    0.03</time>
   <time name="diis">    0.11    0.11</time>
   <time name="orth">    0.00    0.00</time>
   <time name="total">    0.49    0.49</time>
   <energy>
    <i name="e_fr_energy">    -16.86085316 </i>
    <i name="e_wo_entrp">    -16.86085316 </i>
    <i name="e_0_energy">    -16.86085316 </i>
   </energy>
  </scstep>
  <scstep>
   <time name="diag">    0.03    0.03</time>
   <time name="diis">    0.11    0.11</time>
   <time name="orth">    0.00    0.00</time>
   <time name="total">    0.48    0.49</time>
   <energy>
    <i name="e_fr_energy">    -16.86084151 </i>
    <i name="e_wo_entrp">    -16.86084151 </i>
    <i name="e_0_energy">    -16.86084151 </i>
   </energy>
  </scstep>
  <scstep>
   <time name="diag">    0.03    0.03</time>
   <time name="diis">    0.11    0.11</time>
   <time name="orth">    0.00    0.00</time>
   <time name="total">    0.49    0.49</time>
   <energy>
    <i name="e_fr_energy">    -16.86018459 </i>
    <i name="e_wo_entrp">    -16.86018459 </i>
    <i name="e_0_energy">    -16.86018459 </i>
   </energy>
  </scstep>
  <scstep>
   <time name="diag">    0.03    0.03</time>
   <time name="diis">    0.11    0.11</time>
   <time name="orth">    0.00    0.00</time>
   <time name="total">    0.48    0.49</time>
   <energy>
    <i name="e_fr_energy">    -16.85972797 </i>
    <i name="e_wo_entrp">    -16.85972797 </i>
    <i name="e_0_energy">    -16.85972797 </i>
   </energy>
  </scstep>
  <scstep>
   <time name="diag">    0.03    0.03</time>
   <time name="diis">    0.12    0.12</time>
   <time name="orth">    0.00    0.00</time>
   <time name="total">    0.49    0.50</time>
   <energy>
    <i name="e_fr_energy">    -16.85987255 </i>
    <i name="e_wo_entrp">    -16.85987255 </i>
    <i name="e_0_energy">    -16.85987255 </i>
   </energy>
  </scstep>
  <scstep>
   <time name="diag">    0.03    0.03</time>
   <time name="diis">    0.12    0.12</time>
   <time name="orth">    0.00    0.00</time>
   <time name="total">    0.49    0.50</time>
   <energy>
    <i name="e_fr_energy">    -16.85874769 </i>
    <i name="e_wo_entrp">    -16.85874769 </i>
    <i name="e_0_energy">    -16.85874769 </i>
   </energy>
  </scstep>
  <scstep>
   <time name="diag">    0.03    0.03</time>
   <time name="diis">    0.11    0.11</time>
   <time name="orth">    0.00    0.00</time>
   <time name="total">    0.49    0.49</time>
   <energy>
    <i name="e_fr_energy">    -16.85283977 </i>
    <i name="e_wo_entrp">    -16.85283977 </i>
    <i name="e_0_energy">    -16.85283977 </i>
   </energy>
  </scstep>
  <scstep>
   <time name="diag">    0.03    0.03</time>
   <time name="diis">    0.11    0.11</time>
   <time name="orth">    0.00    0.00</time>
   <time name="total">    0.49    0.50</time>
   <energy>
    <i name="e_fr_energy">    -16.85597011 </i>
    <i name="e_wo_entrp">    -16.85597011 </i>
    <i name="e_0_energy">    -16.85597011 </i>
   </energy>
  </scstep>
  <scstep>
   <time name="diag">    0.03    0.03</time>
   <time name="diis">    0.11    0.11</time>
   <time name="orth">    0.00    0.00</time>
   <time name="total">    0.49    0.49</time>
   <energy>
    <i name="e_fr_energy">    -16.85731614 </i>
    <i name="e_wo_entrp">    -16.85731614 </i>
    <i name="e_0_energy">    -16.85731614 </i>
   </energy>
  </scstep>
  <scstep>
   <time name="diag">    0.03    0.03</time>
   <time name="diis">    0.11    0.11</time>
   <time name="orth">    0.00    0.00</time>
   <time name="total">    0.49    0.49</time>
   <energy>
    <i name="e_fr_energy">    -16.85952592 </i>
    <i name="e_wo_entrp">    -16.85952592 </i>
    <i name="e_0_energy">    -16.85952592 </i>
   </energy>
  </scstep>
  <scstep>
   <time name="diag">    0.03    0.03</time>
   <time name="diis">    0.11    0.11</time>
   <time name="orth">    0.00    0.00</time>
   <time name="total">    0.49    0.49</time>
   <energy>
    <i name="e_fr_energy">    -16.86194518 </i>
    <i name="e_wo_entrp">    -16.86194518 </i>
    <i name="e_0_energy">    -16.86194518 </i>
   </energy>
  </scstep>
  <scstep>
   <time name="diag">    0.03    0.03</time>
   <time name="diis">    0.12    0.12</time>
   <time name="orth">    0.00    0.00</time>
   <time name="total">    0.49    0.50</time>
   <energy>
    <i name="e_fr_energy">    -16.86243017 </i>
    <i name="e_wo_entrp">    -16.86243017 </i>
    <i name="e_0_energy">    -16.86243017 </i>
   </energy>
  </scstep>
  <scstep>
   <time name="diag">    0.03    0.03</time>
   <time name="diis">    0.11    0.11</time>
   <time name="orth">    0.00    0.00</time>
   <time name="total">    0.43    0.44</time>
   <energy>
    <i name="alphaZ">      0.32187861 </i>
    <i name="ewald">    310.49027243 </i>
    <i name="hartreedc">   -892.58293723 </i>
    <i name="XCdc">     42.56677781 </i>
    <i name="pawpsdc">   1717.76798208 </i>
    <i name="pawaedc">  -1706.56054467 </i>
    <i name="eentropy">     -0.00000000 </i>
    <i name="bandstr">   -227.97676275 </i>
    <i name="atom">    739.11087146 </i>
    <i name="e_fr_energy">    -16.86246226 </i>
    <i name="e_wo_entrp">    -16.86246226 </i>
    <i name="e_0_energy">    -16.86246226 </i>
   </energy>
  </scstep>
  <structure>
   <crystal>
    <varray name="basis" >
     <v>      10.00000000       0.00000000       0.00000000 </v>
     <v>       0.00000000      10.00000000       0.00000000 </v>
     <v>       0.00000000       0.00000000      10.00000000 </v>
    </varray>
    <i name="volume">   1000.00000000 </i>
    <varray name="rec_basis" >
     <v>       0.10000000       0.00000000       0.00000000 </v>
     <v>       0.00000000       0.10000000       0.00000000 </v>
     <v>       0.00000000       0.00000000       0.10000000 </v>
    </varray>
   </crystal>
   <varray name="positions" >
    <v>       0.29255160       0.61070710       0.50000000 </v>
    <v>       0.26009008       0.72217680       0.50000001 </v>
    <v>       0.32542478       0.49687258       0.50000000 </v>
    <v>       0.38978176       0.32241313       0.50000000 </v>
   </varray>
  </structure>
  <varray name="forces" >
   <v>       1.07518919      -0.68794195       0.40406306 </v>
   <v>      -2.18812141       7.18695341      -0.05746706 </v>
   <v>       0.61751708      -6.35531888      -0.53577073 </v>
   <v>       0.49541515      -0.14369257       0.18917472 </v>
  </varray>
  <varray name="stress" >
   <v>       2.02925322      -7.37398441      -0.00132936 </v>
   <v>      -7.37398433      24.98873534      -0.00300051 </v>
   <v>      -0.00132945      -0.00300048      -0.13122387 </v>
  </varray>
  <energy>
   <i name="e_fr_energy">    -16.87275729 </i>
   <i name="e_wo_entrp">    -16.87275729 </i>
   <i name="e_0_energy">     -0.00000000 </i>
  </energy>
  <time name="totalsc">   61.58  127.22</time>
 </calculation>
 <calculation>
  <scstep>
   <time name="dav">    0.12    0.12</time>
   <time name="total">    0.46    0.46</time>
   <energy>
    <i name="alphaZ">      0.26778894 </i>
    <i name="ewald">     91.39902955 </i>
    <i name="hartreedc">   -707.11353376 </i>
    <i name="XCdc">     38.53790543 </i>
    <i name="pawpsdc">   1723.62329961 </i>
    <i name="pawaedc">  -1712.41584018 </i>
    <i name="eentropy">     -0.00000000 </i>
    <i name="bandstr">   -188.89687634 </i>
    <i name="atom">    739.11087146 </i>
    <i name="e_fr_energy">    -15.48735530 </i>
    <i name="e_wo_entrp">    -15.48735530 </i>
    <i name="e_0_energy">    -15.48735530 </i>
   </energy>
  </scstep>
  <scstep>
   <time name="diag">    0.03    0.03</time>
   <time name="diis">    0.12    0.12</time>
   <time name="orth">    0.00    0.00</time>
   <time name="total">    0.48    0.49</time>
   <energy>
    <i name="e_fr_energy">    -15.04197862 </i>
    <i name="e_wo_entrp">    -15.04197862 </i>
    <i name="e_0_energy">    -15.04197862 </i>
   </energy>
  </scstep>
  <scstep>
   <time name="diag">    0.03    0.03</time>
   <time name="diis">    0.12    0.12</time>
   <time name="orth">    0.00    0.00</time>
   <time name="total">    0.48    0.48</time>
   <energy>
    <i name="e_fr_energy">    -12.71988500 </i>
    <i name="e_wo_entrp">    -12.71988500 </i>
    <i name="e_0_energy">    -12.71988500 </i>
   </energy>
  </scstep>
  <scstep>
   <time name="diag">    0.03    0.03</time>
   <time name="diis">    0.12    0.12</time>
   <time name="orth">    0.00    0.00</time>
   <time name="total">    0.48    0.49</time>
   <energy>
    <i name="e_fr_energy">    -12.06513501 </i>
    <i name="e_wo_entrp">    -12.06513501 </i>
    <i name="e_0_energy">    -12.06513501 </i>
   </energy>
  </scstep>
  <scstep>
   <time name="diag">    0.03    0.03</time>
   <time name="diis">    0.12    0.12</time>
   <time name="orth">    0.00    0.00</time>
   <time name="total">    0.48    0.49</time>
   <energy>
    <i name="e_fr_energy">    -12.17137920 </i>
    <i name="e_wo_entrp">    -12.17137920 </i>
    <i name="e_0_energy">    -12.17137920 </i>
   </energy>
  </scstep>
  <scstep>
   <time name="diag">    0.03    0.03</time>
   <time name="diis">    0.11    0.12</time>
   <time name="orth">    0.00    0.00</time>
   <time name="total">    0.48    0.48</time>
   <energy>
    <i name="e_fr_energy">    -12.32580492 </i>
    <i name="e_wo_entrp">    -12.32580492 </i>
    <i name="e_0_energy">    -12.32580492 </i>
   </energy>
  </scstep>
  <scstep>
   <time name="diag">    0.03    0.03</time>
   <time name="diis">    0.11    0.12</time>
   <time name="orth">    0.00    0.00</time>
   <time name="total">    0.48    0.48</time>
   <energy>
    <i name="e_fr_energy">    -12.44022085 </i>
    <i name="e_wo_entrp">    -12.44022085 </i>
    <i name="e_0_energy">    -12.44022085 </i>
   </energy>
  </scstep>
  <scstep>
   <time name="diag">    0.03    0.03</time>
   <time name="diis">    0.12    0.12</time>
   <time name="orth">    0.00    0.00</time>
   <time name="total">    0.48    0.49</time>
   <energy>
    <i name="e_fr_energy">    -12.47110050 </i>
    <i name="e_wo_entrp">    -12.47110050 </i>
    <i name="e_0_energy">    -12.47110050 </i>
   </energy>
  </scstep>
  <scstep>
   <time name="diag">    0.03    0.03</time>
   <time name="diis">    0.12    0.12</time>
   <time name="orth">    0.00    0.00</time>
   <time name="total">    0.48    0.49</time>
   <energy>
    <i name="e_fr_energy">    -12.48082064 </i>
    <i name="e_wo_entrp">    -12.48082064 </i>
    <i name="e_0_energy">    -12.48082064 </i>
   </energy>
  </scstep>
  <scstep>
   <time name="diag">    0.03    0.03</time>
   <time name="diis">    0.12    0.12</time>
   <time name="orth">    0.00    0.00</time>
   <time name="total">    0.48    0.49</time>
   <energy>
    <i name="e_fr_energy">    -12.48847908 </i>
    <i name="e_wo_entrp">    -12.48847908 </i>
    <i name="e_0_energy">    -12.48847908 </i>
   </energy>
  </scstep>
  <scstep>
   <time name="diag">    0.03    0.03</time>
   <time name="diis">    0.13    0.13</time>
   <time name="orth">    0.00    0.00</time>
   <time name="total">    0.48    0.50</time>
   <energy>
    <i name="e_fr_energy">    -12.49320107 </i>
    <i name="e_wo_entrp">    -12.49320107 </i>
    <i name="e_0_energy">    -12.49320107 </i>
   </energy>
  </scstep>
  <scstep>
   <time name="diag">    0.03    0.03</time>
   <time name="diis">    0.12    0.12</time>
   <time name="orth">    0.00    0.00</time>
   <time name="total">    0.48    0.49</time>
   <energy>
    <i name="e_fr_energy">    -12.49669803 </i>
    <i name="e_wo_entrp">    -12.49669803 </i>
    <i name="e_0_energy">    -12.49669803 </i>
   </energy>
  </scstep>
  <scstep>
   <time name="diag">    0.03    0.03</time>
   <time name="diis">    0.12    0.12</time>
   <time name="orth">    0.00    0.00</time>
   <time name="total">    0.48    0.48</time>
   <energy>
    <i name="e_fr_energy">    -12.50055157 </i>
    <i name="e_wo_entrp">    -12.50055157 </i>
    <i name="e_0_energy">    -12.50055157 </i>
   </energy>
  </scstep>
  <scstep>
   <time name="diag">    0.03    0.03</time>
   <time name="diis">    0.12    0.12</time>
   <time name="orth">    0.00    0.00</time>
   <time name="total">    0.48    0.49</time>
   <energy>
    <i name="e_fr_energy">    -12.50312180 </i>
    <i name="e_wo_entrp">    -12.50312180 </i>
    <i name="e_0_energy">    -12.50312180 </i>
   </energy>
  </scstep>
  <scstep>
   <time name="diag">    0.03    0.03</time>
   <time name="diis">    0.11    0.11</time>
   <time name="orth">    0.00    0.00</time>
   <time name="total">    0.47    0.48</time>
   <energy>
    <i name="e_fr_energy">    -12.50488136 </i>
    <i name="e_wo_entrp">    -12.50488136 </i>
    <i name="e_0_energy">    -12.50488136 </i>
   </energy>
  </scstep>
  <scstep>
   <time name="diag">    0.03    0.03</time>
   <time name="diis">    0.11    0.11</time>
   <time name="orth">    0.00    0.00</time>
   <time name="total">    0.47    0.48</time>
   <energy>
    <i name="e_fr_energy">    -12.50652029 </i>
    <i name="e_wo_entrp">    -12.50652029 </i>
    <i name="e_0_energy">    -12.50652029 </i>
   </energy>
  </scstep>
  <scstep>
   <time name="diag">    0.03    0.03</time>
   <time name="diis">    0.11    0.11</time>
   <time name="orth">    0.00    0.00</time>
   <time name="total">    0.48    0.49</time>
   <energy>
    <i name="e_fr_energy">    -12.50737987 </i>
    <i name="e_wo_entrp">    -12.50737987 </i>
    <i name="e_0_energy">    -12.50737987 </i>
   </energy>
  </scstep>
  <scstep>
   <time name="diag">    0.03    0.03</time>
   <time name="diis">    0.12    0.12</time>
   <time name="orth">    0.00    0.00</time>
   <time name="total">    0.49    0.49</time>
   <energy>
    <i name="e_fr_energy">    -12.50824985 </i>
    <i name="e_wo_entrp">    -12.50824985 </i>
    <i name="e_0_energy">    -12.50824985 </i>
   </energy>
  </scstep>
  <scstep>
   <time name="diag">    0.03    0.03</time>
   <time name="diis">    0.11    0.11</time>
   <time name="orth">    0.00    0.00</time>
   <time name="total">    0.48    0.48</time>
   <energy>
    <i name="e_fr_energy">    -12.50851088 </i>
    <i name="e_wo_entrp">    -12.50851088 </i>
    <i name="e_0_energy">    -12.50851088 </i>
   </energy>
  </scstep>
  <scstep>
   <time name="diag">    0.03    0.03</time>
   <time name="diis">    0.11    0.12</time>
   <time name="orth">    0.00    0.00</time>
   <time name="total">    0.48    0.49</time>
   <energy>
    <i name="e_fr_energy">    -12.50871112 </i>
    <i name="e_wo_entrp">    -12.50871112 </i>
    <i name="e_0_energy">    -12.50871112 </i>
   </energy>
  </scstep>
  <scstep>
   <time name="diag">    0.03    0.03</time>
   <time name="diis">    0.11    0.11</time>
   <time name="orth">    0.00    0.00</time>
   <time name="total">    0.47    0.48</time>
   <energy>
    <i name="e_fr_energy">    -12.50902086 </i>
    <i name="e_wo_entrp">    -12.50902086 </i>
    <i name="e_0_energy">    -12.50902086 </i>
   </energy>
  </scstep>
  <scstep>
   <time name="diag">    0.03    0.03</time>
   <time name="diis">    0.11    0.12</time>
   <time name="orth">    0.00    0.00</time>
   <time name="total">    0.48    0.49</time>
   <energy>
    <i name="e_fr_energy">    -12.50918374 </i>
    <i name="e_wo_entrp">    -12.50918374 </i>
    <i name="e_0_energy">    -12.50918374 </i>
   </energy>
  </scstep>
  <scstep>
   <time name="diag">    0.03    0.03</time>
   <time name="diis">    0.12    0.12</time>
   <time name="orth">    0.00    0.00</time>
   <time name="total">    0.48    0.49</time>
   <energy>
    <i name="e_fr_energy">    -12.50930562 </i>
    <i name="e_wo_entrp">    -12.50930562 </i>
    <i name="e_0_energy">    -12.50930562 </i>
   </energy>
  </scstep>
  <scstep>
   <time name="diag">    0.03    0.03</time>
   <time name="diis">    0.11    0.11</time>
   <time name="orth">    0.00    0.00</time>
   <time name="total">    0.48    0.49</time>
   <energy>
    <i name="e_fr_energy">    -12.50937064 </i>
    <i name="e_wo_entrp">    -12.50937064 </i>
    <i name="e_0_energy">    -12.50937064 </i>
   </energy>
  </scstep>
  <scstep>
   <time name="diag">    0.03    0.03</time>
   <time name="diis">    0.11    0.11</time>
   <time name="orth">    0.00    0.00</time>
   <time name="total">    0.48    0.48</time>
   <energy>
    <i name="e_fr_energy">    -12.50936570 </i>
    <i name="e_wo_entrp">    -12.50936570 </i>
    <i name="e_0_energy">    -12.50936570 </i>
   </energy>
  </scstep>
  <scstep>
   <time name="diag">    0.03    0.03</time>
   <time name="diis">    0.11    0.11</time>
   <time name="orth">    0.00    0.00</time>
   <time name="total">    0.48    0.49</time>
   <energy>
    <i name="e_fr_energy">    -12.50939511 </i>
    <i name="e_wo_entrp">    -12.50939511 </i>
    <i name="e_0_energy">    -12.50939511 </i>
   </energy>
  </scstep>
  <scstep>
   <time name="diag">    0.03    0.03</time>
   <time name="diis">    0.11    0.12</time>
   <time name="orth">    0.00    0.00</time>
   <time name="total">    0.48    0.49</time>
   <energy>
    <i name="e_fr_energy">    -12.50940234 </i>
    <i name="e_wo_entrp">    -12.50940234 </i>
    <i name="e_0_energy">    -12.50940234 </i>
   </energy>
  </scstep>
  <scstep>
   <time name="diag">    0.03    0.03</time>
   <time name="diis">    0.11    0.11</time>
   <time name="orth">    0.00    0.00</time>
   <time name="total">    0.48    0.48</time>
   <energy>
    <i name="e_fr_energy">    -12.50920168 </i>
    <i name="e_wo_entrp">    -12.50920168 </i>
    <i name="e_0_energy">    -12.50920168 </i>
   </energy>
  </scstep>
  <scstep>
   <time name="diag">    0.03    0.03</time>
   <time name="diis">    0.11    0.12</time>
   <time name="orth">    0.00    0.00</time>
   <time name="total">    0.48    0.49</time>
   <energy>
    <i name="e_fr_energy">    -12.50952022 </i>
    <i name="e_wo_entrp">    -12.50952022 </i>
    <i name="e_0_energy">    -12.50952022 </i>
   </energy>
  </scstep>
  <scstep>
   <time name="diag">    0.03    0.03</time>
   <time name="diis">    0.11    0.11</time>
   <time name="orth">    0.00    0.00</time>
   <time name="total">    0.48    0.48</time>
   <energy>
    <i name="e_fr_energy">    -12.50933593 </i>
    <i name="e_wo_entrp">    -12.50933593 </i>
    <i name="e_0_energy">    -12.50933593 </i>
   </energy>
  </scstep>
  <scstep>
   <time name="diag">    0.03    0.03</time>
   <time name="diis">    0.12    0.12</time>
   <time name="orth">    0.00    0.00</time>
   <time name="total">    0.48    0.49</time>
   <energy>
    <i name="e_fr_energy">    -12.50946303 </i>
    <i name="e_wo_entrp">    -12.50946303 </i>
    <i name="e_0_energy">    -12.50946303 </i>
   </energy>
  </scstep>
  <scstep>
   <time name="diag">    0.03    0.03</time>
   <time name="diis">    0.12    0.12</time>
   <time name="orth">    0.00    0.00</time>
   <time name="total">    0.49    0.49</time>
   <energy>
    <i name="e_fr_energy">    -12.50957052 </i>
    <i name="e_wo_entrp">    -12.50957052 </i>
    <i name="e_0_energy">    -12.50957052 </i>
   </energy>
  </scstep>
  <scstep>
   <time name="diag">    0.03    0.03</time>
   <time name="diis">    0.11    0.12</time>
   <time name="orth">    0.00    0.00</time>
   <time name="total">    0.48    0.49</time>
   <energy>
    <i name="e_fr_energy">    -12.50966051 </i>
    <i name="e_wo_entrp">    -12.50966051 </i>
    <i name="e_0_energy">    -12.50966051 </i>
   </energy>
  </scstep>
  <scstep>
   <time name="diag">    0.03    0.03</time>
   <time name="diis">    0.11    0.11</time>
   <time name="orth">    0.00    0.00</time>
   <time name="total">    0.48    0.49</time>
   <energy>
    <i name="e_fr_energy">    -12.50967016 </i>
    <i name="e_wo_entrp">    -12.50967016 </i>
    <i name="e_0_energy">    -12.50967016 </i>
   </energy>
  </scstep>
  <scstep>
   <time name="diag">    0.03    0.03</time>
   <time name="diis">    0.10    0.11</time>
   <time name="orth">    0.00    0.00</time>
   <time name="total">    0.47    0.49</time>
   <energy>
    <i name="e_fr_energy">    -12.50971823 </i>
    <i name="e_wo_entrp">    -12.50971823 </i>
    <i name="e_0_energy">    -12.50971823 </i>
   </energy>
  </scstep>
  <scstep>
   <time name="diag">    0.03    0.03</time>
   <time name="diis">    0.09    0.09</time>
   <time name="orth">    0.00    0.00</time>
   <time name="total">    0.46    0.47</time>
   <energy>
    <i name="e_fr_energy">    -12.50972865 </i>
    <i name="e_wo_entrp">    -12.50972865 </i>
    <i name="e_0_energy">    -12.50972865 </i>
   </energy>
  </scstep>
  <scstep>
   <time name="diag">    0.03    0.03</time>
   <time name="diis">    0.11    0.11</time>
   <time name="orth">    0.00    0.00</time>
   <time name="total">    0.48    0.49</time>
   <energy>
    <i name="e_fr_energy">    -12.50960904 </i>
    <i name="e_wo_entrp">    -12.50960904 </i>
    <i name="e_0_energy">    -12.50960904 </i>
   </energy>
  </scstep>
  <scstep>
   <time name="diag">    0.03    0.03</time>
   <time name="diis">    0.11    0.11</time>
   <time name="orth">    0.00    0.00</time>
   <time name="total">    0.49    0.49</time>
   <energy>
    <i name="e_fr_energy">    -12.50968410 </i>
    <i name="e_wo_entrp">    -12.50968410 </i>
    <i name="e_0_energy">    -12.50968410 </i>
   </energy>
  </scstep>
  <scstep>
   <time name="diag">    0.03    0.03</time>
   <time name="diis">    0.11    0.11</time>
   <time name="orth">    0.00    0.00</time>
   <time name="total">    0.48    0.49</time>
   <energy>
    <i name="e_fr_energy">    -12.50967259 </i>
    <i name="e_wo_entrp">    -12.50967259 </i>
    <i name="e_0_energy">    -12.50967259 </i>
   </energy>
  </scstep>
  <scstep>
   <time name="diag">    0.03    0.03</time>
   <time name="diis">    0.11    0.12</time>
   <time name="orth">    0.00    0.00</time>
   <time name="total">    0.49    0.49</time>
   <energy>
    <i name="e_fr_energy">    -12.50975666 </i>
    <i name="e_wo_entrp">    -12.50975666 </i>
    <i name="e_0_energy">    -12.50975666 </i>
   </energy>
  </scstep>
  <scstep>
   <time name="diag">    0.03    0.03</time>
   <time name="diis">    0.11    0.11</time>
   <time name="orth">    0.00    0.00</time>
   <time name="total">    0.48    0.50</time>
   <energy>
    <i name="e_fr_energy">    -12.50976000 </i>
    <i name="e_wo_entrp">    -12.50976000 </i>
    <i name="e_0_energy">    -12.50976000 </i>
   </energy>
  </scstep>
  <scstep>
   <time name="diag">    0.03    0.03</time>
   <time name="diis">    0.11    0.11</time>
   <time name="orth">    0.00    0.00</time>
   <time name="total">    0.49    0.49</time>
   <energy>
    <i name="e_fr_energy">    -12.50977731 </i>
    <i name="e_wo_entrp">    -12.50977731 </i>
    <i name="e_0_energy">    -12.50977731 </i>
   </energy>
  </scstep>
  <scstep>
   <time name="diag">    0.03    0.03</time>
   <time name="diis">    0.11    0.11</time>
   <time name="orth">    0.00    0.00</time>
   <time name="total">    0.48    0.49</time>
   <energy>
    <i name="e_fr_energy">    -12.50973859 </i>
    <i name="e_wo_entrp">    -12.50973859 </i>
    <i name="e_0_energy">    -12.50973859 </i>
   </energy>
  </scstep>
  <scstep>
   <time name="diag">    0.03    0.03</time>
   <time name="diis">    0.11    0.11</time>
   <time name="orth">    0.00    0.00</time>
   <time name="total">    0.48    0.49</time>
   <energy>
    <i name="e_fr_energy">    -12.50978469 </i>
    <i name="e_wo_entrp">    -12.50978469 </i>
    <i name="e_0_energy">    -12.50978469 </i>
   </energy>
  </scstep>
  <scstep>
   <time name="diag">    0.03    0.03</time>
   <time name="diis">    0.11    0.11</time>
   <time name="orth">    0.00    0.00</time>
   <time name="total">    0.49    0.49</time>
   <energy>
    <i name="e_fr_energy">    -12.50977009 </i>
    <i name="e_wo_entrp">    -12.50977009 </i>
    <i name="e_0_energy">    -12.50977009 </i>
   </energy>
  </scstep>
  <scstep>
   <time name="diag">    0.03    0.03</time>
   <time name="diis">    0.10    0.10</time>
   <time name="orth">    0.00    0.00</time>
   <time name="total">    0.48    0.49</time>
   <energy>
    <i name="e_fr_energy">    -12.50979218 </i>
    <i name="e_wo_entrp">    -12.50979218 </i>
    <i name="e_0_energy">    -12.50979218 </i>
   </energy>
  </scstep>
  <scstep>
   <time name="diag">    0.03    0.03</time>
   <time name="diis">    0.09    0.09</time>
   <time name="orth">    0.00    0.00</time>
   <time name="total">    0.47    0.48</time>
   <energy>
    <i name="e_fr_energy">    -12.50979740 </i>
    <i name="e_wo_entrp">    -12.50979740 </i>
    <i name="e_0_energy">    -12.50979740 </i>
   </energy>
  </scstep>
  <scstep>
   <time name="diag">    0.03    0.03</time>
   <time name="diis">    0.11    0.11</time>
   <time name="orth">    0.00    0.00</time>
   <time name="total">    0.48    0.50</time>
   <energy>
    <i name="e_fr_energy">    -12.50979362 </i>
    <i name="e_wo_entrp">    -12.50979362 </i>
    <i name="e_0_energy">    -12.50979362 </i>
   </energy>
  </scstep>
  <scstep>
   <time name="diag">    0.03    0.03</time>
   <time name="diis">    0.10    0.10</time>
   <time name="orth">    0.00    0.00</time>
   <time name="total">    0.48    0.49</time>
   <energy>
    <i name="e_fr_energy">    -12.50979261 </i>
    <i name="e_wo_entrp">    -12.50979261 </i>
    <i name="e_0_energy">    -12.50979261 </i>
   </energy>
  </scstep>
  <scstep>
   <time name="diag">    0.03    0.03</time>
   <time name="diis">    0.11    0.11</time>
   <time name="orth">    0.00    0.00</time>
   <time name="total">    0.48    0.49</time>
   <energy>
    <i name="e_fr_energy">    -12.50979309 </i>
    <i name="e_wo_entrp">    -12.50979309 </i>
    <i name="e_0_energy">    -12.50979309 </i>
   </energy>
  </scstep>
  <scstep>
   <time name="diag">    0.03    0.03</time>
   <time name="diis">    0.11    0.11</time>
   <time name="orth">    0.00    0.00</time>
   <time name="total">    0.49    0.49</time>
   <energy>
    <i name="e_fr_energy">    -12.50979294 </i>
    <i name="e_wo_entrp">    -12.50979294 </i>
    <i name="e_0_energy">    -12.50979294 </i>
   </energy>
  </scstep>
  <scstep>
   <time name="diag">    0.03    0.03</time>
   <time name="diis">    0.10    0.10</time>
   <time name="orth">    0.00    0.00</time>
   <time name="total">    0.48    0.48</time>
   <energy>
    <i name="e_fr_energy">    -12.50979430 </i>
    <i name="e_wo_entrp">    -12.50979430 </i>
    <i name="e_0_energy">    -12.50979430 </i>
   </energy>
  </scstep>
  <scstep>
   <time name="diag">    0.03    0.03</time>
   <time name="diis">    0.09    0.09</time>
   <time name="orth">    0.00    0.00</time>
   <time name="total">    0.46    0.47</time>
   <energy>
    <i name="e_fr_energy">    -12.50980338 </i>
    <i name="e_wo_entrp">    -12.50980338 </i>
    <i name="e_0_energy">    -12.50980338 </i>
   </energy>
  </scstep>
  <scstep>
   <time name="diag">    0.03    0.03</time>
   <time name="diis">    0.07    0.08</time>
   <time name="orth">    0.00    0.00</time>
   <time name="total">    0.44    0.46</time>
   <energy>
    <i name="e_fr_energy">    -12.50980640 </i>
    <i name="e_wo_entrp">    -12.50980640 </i>
    <i name="e_0_energy">    -12.50980640 </i>
   </energy>
  </scstep>
  <scstep>
   <time name="diag">    0.03    0.03</time>
   <time name="diis">    0.07    0.07</time>
   <time name="orth">    0.00    0.00</time>
   <time name="total">    0.40    0.41</time>
   <energy>
    <i name="alphaZ">      0.26778894 </i>
    <i name="ewald">     91.39902955 </i>
    <i name="hartreedc">   -719.11104303 </i>
    <i name="XCdc">     37.93481655 </i>
    <i name="pawpsdc">    835.87096216 </i>
    <i name="pawaedc">   -824.21518749 </i>
    <i name="eentropy">     -0.00000000 </i>
    <i name="bandstr">   -173.76704457 </i>
    <i name="atom">    739.11087146 </i>
    <i name="e_fr_energy">    -12.50980643 </i>
    <i name="e_wo_entrp">    -12.50980643 </i>
    <i name="e_0_energy">    -12.50980643 </i>
   </energy>
  </scstep>
  <structure>
   <crystal>
    <varray name="basis" >
     <v>      10.15275550      -0.55508927      -0.00010007 </v>
     <v>      -0.55508927      11.88106974      -0.00022587 </v>
     <v>      -0.00010008      -0.00022587       9.99012190 </v>
    </varray>
    <i name="volume">   1201.98621171 </i>
    <varray name="rec_basis" >
     <v>       0.09874767       0.00461354       0.00000109 </v>
     <v>       0.00461354       0.08438305       0.00000195 </v>
     <v>       0.00000109       0.00000195       0.10009888 </v>
    </varray>
   </crystal>
   <varray name="positions" >
    <v>       0.29773860       0.60738828       0.50194931 </v>
    <v>       0.24953400       0.75684857       0.49972277 </v>
    <v>       0.32840384       0.46621284       0.49741530 </v>
    <v>       0.39217177       0.32171992       0.50091263 </v>
   </varray>
  </structure>
  <varray name="forces" >
   <v>       0.22417034      -1.72276754      -0.14868724 </v>
   <v>       1.29154965      -4.06750799       0.04632922 </v>
   <v>      -1.39485295       5.07778124       0.07302907 </v>
   <v>      -0.12086705       0.71249429       0.02932895 </v>
  </varray>
  <varray name="stress" >
   <v>      -2.61147526       7.29221724       0.04992145 </v>
   <v>       7.29221728     -26.84286982      -0.20314048 </v>
   <v>       0.04992149      -0.20314044      -0.58904396 </v>
  </varray>
  <energy>
   <i name="e_fr_energy">    -12.52231379 </i>
   <i name="e_wo_entrp">    -12.52231379 </i>
   <i name="e_0_energy">     -0.00000000 </i>
  </energy>
  <time name="totalsc">   27.31   27.74</time>
 </calculation>
 <calculation>
  <scstep>
   <time name="dav">    0.12    0.12</time>
   <time name="total">    0.46    0.46</time>
   <energy>
    <i name="alphaZ">      0.29104822 </i>
[...]
   <time name="diis">    0.04    0.04</time>
   <time name="orth">    0.00    0.00</time>
   <time name="total">    0.41    0.41</time>
   <energy>
    <i name="e_fr_energy">    -21.53113059 </i>
    <i name="e_wo_entrp">    -21.53113059 </i>
    <i name="e_0_energy">    -21.53113059 </i>
   </energy>
  </scstep>
  <scstep>
   <time name="diag">    0.03    0.03</time>
   <time name="diis">    0.04    0.04</time>
   <time name="orth">    0.00    0.00</time>
   <time name="total">    0.41    0.41</time>
   <energy>
    <i name="e_fr_energy">    -21.53113059 </i>
    <i name="e_wo_entrp">    -21.53113059 </i>
    <i name="e_0_energy">    -21.53113059 </i>
   </energy>
  </scstep>
  <scstep>
   <time name="diag">    0.03    0.03</time>
   <time name="diis">    0.04    0.04</time>
   <time name="orth">    0.00    0.00</time>
   <time name="total">    0.40    0.41</time>
   <energy>
    <i name="e_fr_energy">    -21.53113059 </i>
    <i name="e_wo_entrp">    -21.53113059 </i>
    <i name="e_0_energy">    -21.53113059 </i>
   </energy>
  </scstep>
  <scstep>
   <time name="diag">    0.03    0.03</time>
   <time name="diis">    0.04    0.04</time>
   <time name="orth">    0.00    0.00</time>
   <time name="total">    0.37    0.37</time>
   <energy>
    <i name="alphaZ">      0.84613485 </i>
    <i name="ewald">    126.04986565 </i>
    <i name="hartreedc">   -732.87653885 </i>
    <i name="XCdc">     42.31061475 </i>
    <i name="pawpsdc">   1746.88968948 </i>
    <i name="pawaedc">  -1735.54547644 </i>
    <i name="eentropy">     -0.00000000 </i>
    <i name="bandstr">   -208.31629147 </i>
    <i name="atom">    739.11087146 </i>
    <i name="e_fr_energy">    -21.53113059 </i>
    <i name="e_wo_entrp">    -21.53113059 </i>
    <i name="e_0_energy">    -21.53113059 </i>
   </energy>
  </scstep>
  <structure>
   <crystal>
    <varray name="basis" >
     <v>       6.78400875       0.48928330       0.01526858 </v>
     <v>       0.35355251       8.13737084       0.01794226 </v>
     <v>       0.01664917       0.02272787       6.91274107 </v>
    </varray>
    <i name="volume">    380.41054059 </i>
    <varray name="rec_basis" >
     <v>       0.14786954      -0.00642390      -0.00033502 </v>
     <v>      -0.00889024       0.12327693      -0.00038390 </v>
     <v>      -0.00030353      -0.00030578       0.14466215 </v>
    </varray>
   </crystal>
   <varray name="positions" >
    <v>       0.30073650       0.60007518       0.50065708 </v>
    <v>       0.28713521       0.74707514       0.50441879 </v>
    <v>       0.26360045       0.43453207       0.49197294 </v>
    <v>       0.41637606       0.37048722       0.50295119 </v>
   </varray>
  </structure>
  <varray name="forces" >
   <v>      -0.02450304       0.01704654      -0.00098291 </v>
   <v>       0.00525949       0.01000830       0.00310073 </v>
   <v>      -0.00308766       0.04459764      -0.00262186 </v>
   <v>       0.02233121      -0.07165248       0.00050404 </v>
  </varray>
  <varray name="stress" >
   <v>       0.09437088      -0.13255572       0.00410690 </v>
   <v>      -0.13255575       0.62770694       0.00312546 </v>
   <v>       0.00410690       0.00312552      -0.01323540 </v>
  </varray>
  <energy>
   <i name="e_fr_energy">    -21.54526784 </i>
   <i name="e_wo_entrp">    -21.54526784 </i>
   <i name="e_0_energy">     -0.00000000 </i>
  </energy>
  <time name="totalsc">    3.12    3.18</time>
 </calculation>
 <calculation>
  <scstep>
   <time name="dav">    0.08    0.08</time>
   <time name="total">    0.42    0.42</time>
   <energy>
    <i name="alphaZ">      0.84613485 </i>
    <i name="ewald">    126.04986532 </i>
    <i name="hartreedc">   -732.87653881 </i>
    <i name="XCdc">     42.31061476 </i>
    <i name="pawpsdc">   1746.88968974 </i>
    <i name="pawaedc">  -1735.54547671 </i>
    <i name="eentropy">     -0.00000000 </i>
    <i name="bandstr">   -208.31629121 </i>
    <i name="atom">    739.11087146 </i>
    <i name="e_fr_energy">    -21.53113059 </i>
    <i name="e_wo_entrp">    -21.53113059 </i>
    <i name="e_0_energy">    -21.53113059 </i>
   </energy>
  </scstep>
  <scstep>
   <time name="diag">    0.03    0.03</time>
   <time name="diis">    0.04    0.04</time>
   <time name="orth">    0.00    0.00</time>
   <time name="total">    0.41    0.41</time>
   <energy>
    <i name="e_fr_energy">    -21.53113059 </i>
    <i name="e_wo_entrp">    -21.53113059 </i>
    <i name="e_0_energy">    -21.53113059 </i>
   </energy>
  </scstep>
  <scstep>
   <time name="diag">    0.03    0.03</time>
   <time name="diis">    0.04    0.04</time>
   <time name="orth">    0.00    0.00</time>
   <time name="total">    0.40    0.41</time>
   <energy>
    <i name="e_fr_energy">    -21.53113059 </i>
    <i name="e_wo_entrp">    -21.53113059 </i>
    <i name="e_0_energy">    -21.53113059 </i>
   </energy>
  </scstep>
  <scstep>
   <time name="diag">    0.03    0.03</time>
   <time name="diis">    0.04    0.04</time>
   <time name="orth">    0.00    0.00</time>
   <time name="total">    0.40    0.41</time>
   <energy>
    <i name="e_fr_energy">    -21.53113059 </i>
    <i name="e_wo_entrp">    -21.53113059 </i>
    <i name="e_0_energy">    -21.53113059 </i>
   </energy>
  </scstep>
  <scstep>
   <time name="diag">    0.03    0.03</time>
   <time name="diis">    0.04    0.04</time>
   <time name="orth">    0.00    0.00</time>
   <time name="total">    0.36    0.37</time>
   <energy>
    <i name="alphaZ">      0.84613485 </i>
    <i name="ewald">    126.04986532 </i>
    <i name="hartreedc">   -732.87653771 </i>
    <i name="XCdc">     42.31061463 </i>
    <i name="pawpsdc">   1746.89036251 </i>
    <i name="pawaedc">  -1735.54614946 </i>
    <i name="eentropy">     -0.00000000 </i>
    <i name="bandstr">   -208.31629218 </i>
    <i name="atom">    739.11087146 </i>
    <i name="e_fr_energy">    -21.53113059 </i>
    <i name="e_wo_entrp">    -21.53113059 </i>
    <i name="e_0_energy">    -21.53113059 </i>
   </energy>
  </scstep>
  <structure>
   <crystal>
    <varray name="basis" >
     <v>       6.78400874       0.48928330       0.01526858 </v>
     <v>       0.35355251       8.13737084       0.01794226 </v>
     <v>       0.01664917       0.02272787       6.91274107 </v>
    </varray>
    <i name="volume">    380.41054004 </i>
    <varray name="rec_basis" >
     <v>       0.14786954      -0.00642390      -0.00033502 </v>
     <v>      -0.00889024       0.12327693      -0.00038390 </v>
     <v>      -0.00030353      -0.00030578       0.14466215 </v>
    </varray>
   </crystal>
   <varray name="positions" >
    <v>       0.30073650       0.60007518       0.50065708 </v>
    <v>       0.28713521       0.74707514       0.50441879 </v>
    <v>       0.26360045       0.43453207       0.49197294 </v>
    <v>       0.41637606       0.37048722       0.50295119 </v>
   </varray>
  </structure>
  <varray name="forces" >
   <v>      -0.02449127       0.01705720      -0.00098070 </v>
   <v>       0.00525604       0.01000132       0.00310025 </v>
   <v>      -0.00309320       0.04459577      -0.00262285 </v>
   <v>       0.02232843      -0.07165429       0.00050330 </v>
  </varray>
  <varray name="stress" >
   <v>       0.09436298      -0.13255705       0.00410618 </v>
   <v>      -0.13255706       0.62770009       0.00312576 </v>
   <v>       0.00410619       0.00312594      -0.01325180 </v>
  </varray>
  <energy>
   <i name="e_fr_energy">    -21.54526784 </i>
   <i name="e_wo_entrp">    -21.54526784 </i>
   <i name="e_0_energy">     -0.00000000 </i>
  </energy>
  <time name="totalsc">    3.13    3.18</time>
 </calculation>
 <calculation>
  <scstep>
   <time name="dav">    0.08    0.08</time>
   <time name="total">    0.42    0.42</time>
   <energy>
    <i name="alphaZ">      0.84613485 </i>
    <i name="ewald">    126.04986524 </i>
    <i name="hartreedc">   -732.87653773 </i>
    <i name="XCdc">     42.31061464 </i>
    <i name="pawpsdc">   1746.89036221 </i>
    <i name="pawaedc">  -1735.54614917 </i>
    <i name="eentropy">     -0.00000000 </i>
    <i name="bandstr">   -208.31629208 </i>
    <i name="atom">    739.11087146 </i>
    <i name="e_fr_energy">    -21.53113059 </i>
    <i name="e_wo_entrp">    -21.53113059 </i>
    <i name="e_0_energy">    -21.53113059 </i>
   </energy>
  </scstep>
  <scstep>
   <time name="diag">    0.03    0.03</time>
   <time name="diis">    0.04    0.04</time>
   <time name="orth">    0.00    0.00</time>
   <time name="total">    0.40    0.41</time>
   <energy>
    <i name="e_fr_energy">    -21.53113059 </i>
    <i name="e_wo_entrp">    -21.53113059 </i>
    <i name="e_0_energy">    -21.53113059 </i>
   </energy>
  </scstep>
  <scstep>
   <time name="diag">    0.03    0.03</time>
   <time name="diis">    0.04    0.04</time>
   <time name="orth">    0.00    0.00</time>
   <time name="total">    0.40    0.41</time>
   <energy>
    <i name="e_fr_energy">    -21.53113059 </i>
    <i name="e_wo_entrp">    -21.53113059 </i>
    <i name="e_0_energy">    -21.53113059 </i>
   </energy>
  </scstep>
  <scstep>
   <time name="diag">    0.03    0.03</time>
   <time name="diis">    0.04    0.04</time>
   <time name="orth">    0.00    0.00</time>
   <time name="total">    0.40    0.42</time>
   <energy>
    <i name="e_fr_energy">    -21.53113059 </i>
    <i name="e_wo_entrp">    -21.53113059 </i>
    <i name="e_0_energy">    -21.53113059 </i>
   </energy>
  </scstep>
  <scstep>
   <time name="diag">    0.03    0.03</time>
   <time name="diis">    0.04    0.04</time>
   <time name="orth">    0.00    0.00</time>
   <time name="total">    0.36    0.37</time>
   <energy>
    <i name="alphaZ">      0.84613485 </i>
    <i name="ewald">    126.04986524 </i>
    <i name="hartreedc">   -732.87653692 </i>
    <i name="XCdc">     42.31061461 </i>
    <i name="pawpsdc">   1746.89073816 </i>
    <i name="pawaedc">  -1735.54652515 </i>
    <i name="eentropy">     -0.00000000 </i>
    <i name="bandstr">   -208.31629283 </i>
    <i name="atom">    739.11087146 </i>
    <i name="e_fr_energy">    -21.53113059 </i>
    <i name="e_wo_entrp">    -21.53113059 </i>
    <i name="e_0_energy">    -21.53113059 </i>
   </energy>
  </scstep>
  <structure>
   <crystal>
    <varray name="basis" >
     <v>       6.78400874       0.48928330       0.01526858 </v>
     <v>       0.35355251       8.13737084       0.01794226 </v>
     <v>       0.01664917       0.02272787       6.91274107 </v>
    </varray>
    <i name="volume">    380.41053989 </i>
    <varray name="rec_basis" >
     <v>       0.14786954      -0.00642390      -0.00033502 </v>
     <v>      -0.00889024       0.12327693      -0.00038390 </v>
     <v>      -0.00030353      -0.00030578       0.14466215 </v>
    </varray>
   </crystal>
   <varray name="positions" >
    <v>       0.30073650       0.60007518       0.50065708 </v>
    <v>       0.28713521       0.74707514       0.50441879 </v>
    <v>       0.26360045       0.43453207       0.49197294 </v>
    <v>       0.41637606       0.37048722       0.50295119 </v>
   </varray>
  </structure>
  <varray name="forces" >
   <v>      -0.02449282       0.01705797      -0.00098178 </v>
   <v>       0.00525666       0.01000077       0.00310057 </v>
   <v>      -0.00309444       0.04459633      -0.00262256 </v>
   <v>       0.02233060      -0.07165508       0.00050377 </v>
  </varray>
  <varray name="stress" >
   <v>       0.09436064      -0.13255460       0.00410673 </v>
   <v>      -0.13255462       0.62770740       0.00312615 </v>
   <v>       0.00410680       0.00312603      -0.01325315 </v>
  </varray>
  <energy>
   <i name="e_fr_energy">    -21.54526784 </i>
   <i name="e_wo_entrp">    -21.54526784 </i>
   <i name="e_0_energy">     -0.00000000 </i>
  </energy>
  <time name="totalsc">    3.11    3.19</time>
 </calculation>
 <calculation>
  <scstep>
   <time name="dav">    0.18    0.18</time>
   <time name="total">    0.51    0.52</time>
   <energy>
    <i name="alphaZ">      0.83973945 </i>
    <i name="ewald">    127.74841734 </i>
    <i name="hartreedc">   -731.96182484 </i>
    <i name="XCdc">     42.18796204 </i>
    <i name="pawpsdc">   1746.89073794 </i>
    <i name="pawaedc">  -1735.54652493 </i>
    <i name="eentropy">     -0.00000000 </i>
    <i name="bandstr">   -210.80745287 </i>
    <i name="atom">    739.11087146 </i>
    <i name="e_fr_energy">    -21.53807442 </i>
    <i name="e_wo_entrp">    -21.53807442 </i>
    <i name="e_0_energy">    -21.53807442 </i>
   </energy>
  </scstep>
  <scstep>
   <time name="diag">    0.03    0.03</time>
   <time name="diis">    0.13    0.13</time>
   <time name="orth">    0.00    0.00</time>
   <time name="total">    0.50    0.50</time>
   <energy>
    <i name="e_fr_energy">    -21.53131848 </i>
    <i name="e_wo_entrp">    -21.53131848 </i>
    <i name="e_0_energy">    -21.53131848 </i>
   </energy>
  </scstep>
  <scstep>
   <time name="diag">    0.03    0.03</time>
   <time name="diis">    0.15    0.15</time>
   <time name="orth">    0.00    0.00</time>
   <time name="total">    0.51    0.52</time>
   <energy>
    <i name="e_fr_energy">    -21.53065474 </i>
    <i name="e_wo_entrp">    -21.53065474 </i>
    <i name="e_0_energy">    -21.53065474 </i>
   </energy>
  </scstep>
  <scstep>
   <time name="diag">    0.03    0.03</time>
   <time name="diis">    0.15    0.15</time>
   <time name="orth">    0.00    0.00</time>
   <time name="total">    0.51    0.52</time>
   <energy>
    <i name="e_fr_energy">    -21.53067461 </i>
    <i name="e_wo_entrp">    -21.53067461 </i>
    <i name="e_0_energy">    -21.53067461 </i>
   </energy>
  </scstep>
  <scstep>
   <time name="diag">    0.03    0.03</time>
   <time name="diis">    0.15    0.15</time>
   <time name="orth">    0.00    0.00</time>
   <time name="total">    0.51    0.52</time>
   <energy>
    <i name="e_fr_energy">    -21.53068466 </i>
    <i name="e_wo_entrp">    -21.53068466 </i>
    <i name="e_0_energy">    -21.53068466 </i>
   </energy>
  </scstep>
  <scstep>
   <time name="diag">    0.03    0.03</time>
   <time name="diis">    0.15    0.15</time>
   <time name="orth">    0.00    0.00</time>
   <time name="total">    0.52    0.52</time>
   <energy>
    <i name="e_fr_energy">    -21.53066621 </i>
    <i name="e_wo_entrp">    -21.53066621 </i>
    <i name="e_0_energy">    -21.53066621 </i>
   </energy>
  </scstep>
  <scstep>
   <time name="diag">    0.03    0.03</time>
   <time name="diis">    0.14    0.14</time>
   <time name="orth">    0.00    0.00</time>
   <time name="total">    0.51    0.51</time>
   <energy>
    <i name="e_fr_energy">    -21.53065945 </i>
    <i name="e_wo_entrp">    -21.53065945 </i>
    <i name="e_0_energy">    -21.53065945 </i>
   </energy>
  </scstep>
  <scstep>
   <time name="diag">    0.03    0.03</time>
   <time name="diis">    0.13    0.13</time>
   <time name="orth">    0.00    0.00</time>
   <time name="total">    0.49    0.50</time>
   <energy>
    <i name="e_fr_energy">    -21.53066269 </i>
    <i name="e_wo_entrp">    -21.53066269 </i>
    <i name="e_0_energy">    -21.53066269 </i>
   </energy>
  </scstep>
  <scstep>
   <time name="diag">    0.03    0.03</time>
   <time name="diis">    0.10    0.10</time>
   <time name="orth">    0.00    0.00</time>
   <time name="total">    0.47    0.47</time>
   <energy>
    <i name="e_fr_energy">    -21.53066791 </i>
    <i name="e_wo_entrp">    -21.53066791 </i>
    <i name="e_0_energy">    -21.53066791 </i>
   </energy>
  </scstep>
  <scstep>
   <time name="diag">    0.03    0.03</time>
   <time name="diis">    0.10    0.10</time>
   <time name="orth">    0.00    0.00</time>
   <time name="total">    0.46    0.47</time>
   <energy>
    <i name="e_fr_energy">    -21.53067570 </i>
    <i name="e_wo_entrp">    -21.53067570 </i>
    <i name="e_0_energy">    -21.53067570 </i>
   </energy>
  </scstep>
  <scstep>
   <time name="diag">    0.03    0.03</time>
   <time name="diis">    0.09    0.09</time>
   <time name="orth">    0.00    0.00</time>
   <time name="total">    0.46    0.46</time>
   <energy>
    <i name="e_fr_energy">    -21.53068229 </i>
    <i name="e_wo_entrp">    -21.53068229 </i>
    <i name="e_0_energy">    -21.53068229 </i>
   </energy>
  </scstep>
  <scstep>
   <time name="diag">    0.03    0.03</time>
   <time name="diis">    0.09    0.09</time>
   <time name="orth">    0.00    0.00</time>
   <time name="total">    0.46    0.47</time>
   <energy>
    <i name="e_fr_energy">    -21.53069057 </i>
    <i name="e_wo_entrp">    -21.53069057 </i>
    <i name="e_0_energy">    -21.53069057 </i>
   </energy>
  </scstep>
  <scstep>
   <time name="diag">    0.03    0.03</time>
   <time name="diis">    0.09    0.09</time>
   <time name="orth">    0.00    0.00</time>
   <time name="total">    0.46    0.46</time>
   <energy>
    <i name="e_fr_energy">    -21.53069166 </i>
    <i name="e_wo_entrp">    -21.53069166 </i>
    <i name="e_0_energy">    -21.53069166 </i>
   </energy>
  </scstep>
  <scstep>
   <time name="diag">    0.03    0.03</time>
   <time name="diis">    0.09    0.09</time>
   <time name="orth">    0.00    0.00</time>
   <time name="total">    0.46    0.46</time>
   <energy>
    <i name="e_fr_energy">    -21.53069453 </i>
    <i name="e_wo_entrp">    -21.53069453 </i>
    <i name="e_0_energy">    -21.53069453 </i>
   </energy>
  </scstep>
  <scstep>
   <time name="diag">    0.03    0.03</time>
   <time name="diis">    0.09    0.09</time>
   <time name="orth">    0.00    0.00</time>
   <time name="total">    0.46    0.47</time>
   <energy>
    <i name="e_fr_energy">    -21.53069597 </i>
    <i name="e_wo_entrp">    -21.53069597 </i>
    <i name="e_0_energy">    -21.53069597 </i>
   </energy>
  </scstep>
  <scstep>
   <time name="diag">    0.03    0.03</time>
   <time name="diis">    0.09    0.09</time>
   <time name="orth">    0.00    0.00</time>
   <time name="total">    0.41    0.42</time>
   <energy>
    <i name="alphaZ">      0.83973945 </i>
    <i name="ewald">    127.74841734 </i>
    <i name="hartreedc">   -734.46439958 </i>
    <i name="XCdc">     42.31422511 </i>
    <i name="pawpsdc">   1748.35964173 </i>
    <i name="pawaedc">  -1737.01604038 </i>
    <i name="eentropy">     -0.00000000 </i>
    <i name="bandstr">   -208.42315148 </i>
    <i name="atom">    739.11087146 </i>
    <i name="e_fr_energy">    -21.53069636 </i>
    <i name="e_wo_entrp">    -21.53069636 </i>
    <i name="e_0_energy">    -21.53069636 </i>
   </energy>
  </scstep>
  <structure>
   <crystal>
    <varray name="basis" >
     <v>       6.80922762       0.49257293       0.01472062 </v>
     <v>       0.35918141       8.13223391       0.01808981 </v>
     <v>       0.01608691       0.02280501       6.94439999 </v>
    </varray>
    <i name="volume">    383.30771911 </i>
    <varray name="rec_basis" >
     <v>       0.14733090      -0.00650654      -0.00031993 </v>
     <v>      -0.00892309       0.12336241      -0.00038444 </v>
     <v>      -0.00028907      -0.00030756       0.14400260 </v>
    </varray>
   </crystal>
   <varray name="positions" >
    <v>       0.30035245       0.59976760       0.50060699 </v>
    <v>       0.28731806       0.74717267       0.50439804 </v>
    <v>       0.26404111       0.43450856       0.49204727 </v>
    <v>       0.41613660       0.37072077       0.50294770 </v>
   </varray>
  </structure>
  <varray name="forces" >
   <v>      -0.01992328       0.19248234       0.00361626 </v>
   <v>       0.00079454      -0.13613326      -0.00110516 </v>
   <v>      -0.05060335       0.05391673      -0.00619708 </v>
   <v>       0.06973209      -0.11026581       0.00368598 </v>
  </varray>
  <varray name="stress" >
   <v>       0.29055364      -0.24340727       0.01885387 </v>
   <v>      -0.24340745       0.13796569      -0.02010223 </v>
   <v>       0.01885397      -0.02010185      -0.01072312 </v>
  </varray>
  <energy>
   <i name="e_fr_energy">    -21.54471612 </i>
   <i name="e_wo_entrp">    -21.54471612 </i>
   <i name="e_0_energy">     -0.00000000 </i>
  </energy>
