Co–organic framework                  
           1
    10.000000    0.000000    0.000000
     0.000000   10.000000    0.000000
     0.000000    0.000000   10.000000
   C    O    Li
   1   2   1
Direct configuration=     1
   0.29255160  0.61070710  0.50000000
   0.26009008  0.72217680  0.50000001
   0.32542478  0.49687258  0.50000000
   0.38978176  0.32241313  0.50000000
Co–organic framework                  
           1
    10.152756   -0.555089   -0.000100
    -0.555089   11.881070   -0.000226
    -0.000100   -0.000226    9.990122
   C    O    Li
   1   2   1
Direct configuration=     2
   0.29773860  0.60738828  0.50194931
   0.24953400  0.75684857  0.49972277
   0.32840384  0.46621284  0.49741530
   0.39217177  0.32171992  0.50091263
Co–organic framework                  
           1
    10.080033   -0.290829   -0.000052
    -0.290829   10.985552   -0.000118
    -0.000052   -0.000118    9.994825
   C    O    Li
   1   2   1
Direct configuration=     3
   0.29537304  0.60860758  0.50102039
   0.25373496  0.74315204  0.49985462
   0.32767678  0.47846409  0.49864728
   0.39106343  0.32194589  0.50047772
Co–organic framework                  
           1
    10.043845   -0.159325   -0.000029
    -0.159325   10.539915   -0.000065
    -0.000029   -0.000065    9.997165
   C    O    Li
   1   2   1
Direct configuration=     4
   0.29417370  0.60929153  0.50055835
   0.25600191  0.73573500  0.49992025
   0.32716700  0.48506246  0.49926000
   0.39050560  0.32208062  0.50026140
Co–organic framework                  
           1
    10.021922   -0.079662   -0.000014
    -0.079662   10.269957   -0.000032
    -0.000014   -0.000032    9.998582
   C    O    Li
   1   2   1
Direct configuration=     5
   0.29343954  0.60973233  0.50027852
   0.25743569  0.73103573  0.49996003
   0.32680747  0.48923169  0.49963107
   0.39016552  0.32216986  0.50013038
Co–organic framework                  
           1
    10.015208   -0.055265   -0.000010
    -0.055265   10.187280   -0.000022
    -0.000010   -0.000022    9.999017
   C    O    Li
   1   2   1
Direct configuration=     6
   0.29321317  0.60987261  0.50019283
   0.25788687  0.72955537  0.49997221
   0.32668724  0.49054291  0.49974469
   0.39006093  0.32219872  0.50009027
Co–organic framework                  
           1
    10.015869   -0.057664   -0.000010
    -0.057664   10.195410   -0.000023
    -0.000010   -0.000023    9.998974
   C    O    Li
   1   2   1
Direct configuration=     7
   0.29323548  0.60985865  0.50020126
   0.25784212  0.72970224  0.49997101
   0.32669938  0.49041289  0.49973352
   0.39007123  0.32219583  0.50009421
Co–organic framework                  
           1
    10.006216   -0.080998    0.000438
    -0.081079   10.244368    0.000286
     0.000440    0.000283    9.974591
   C    O    Li
   1   2   1
Direct configuration=     8
   0.29521953  0.61354258  0.50043585
   0.25794807  0.72857905  0.49996890
   0.32252804  0.48850272  0.49934678
   0.39215257  0.32154526  0.50024847
Co–organic framework                  
           1
     9.997122   -0.102981    0.000861
    -0.103138   10.290491    0.000578
     0.000863    0.000571    9.951620
   C    O    Li
   1   2   1
Direct configuration=     9
   0.29709850  0.61700092  0.50065721
   0.25804555  0.72752617  0.49996693
   0.31859027  0.48670276  0.49898179
   0.39411390  0.32093976  0.50039407
Co–organic framework                  
           1
     9.992434   -0.110410    0.001473
    -0.110684   10.295643    0.000500
     0.001472    0.000502    9.936273
   C    O    Li
   1   2   1
Direct configuration=    10
   0.29878064  0.61731564  0.50078562
   0.25788960  0.72783469  0.49997111
   0.31586512  0.48596527  0.49874978
   0.39531286  0.32105400  0.50049349
Co–organic framework                  
           1
     9.978368   -0.132696    0.003309
    -0.133319   10.311098    0.000266
     0.003299    0.000296    9.890232
   C    O    Li
   1   2   1
Direct configuration=    11
   0.30383016  0.61826301  0.50117113
   0.25742221  0.72875947  0.49998372
   0.30768415  0.48374796  0.49805317
   0.39891169  0.32139916  0.50079199
Co–organic framework                  
           1
     9.950237   -0.177267    0.006980
    -0.178590   10.342007   -0.000202
     0.006952   -0.000117    9.798150
   C    O    Li
   1   2   1
Direct configuration=    12
   0.31394785  0.62017700  0.50194390
   0.25649024  0.73060428  0.50000926
   0.29128897  0.47928417  0.49665641
   0.40612115  0.32210416  0.50139043
Co–organic framework                  
           1
     9.973105   -0.141035    0.003996
    -0.141789   10.316881    0.000178
     0.003983    0.000219    9.873004
   C    O    Li
   1   2   1
Direct configuration=    13
   0.30569241  0.61858975  0.50131283
   0.25724331  0.72911229  0.49998795
   0.30467142  0.48296041  0.49779766
   0.40024107  0.32150716  0.50090156
Co–organic framework                  
           1
     9.966851   -0.135687    0.004400
    -0.136533   10.291034    0.000193
     0.004385    0.000240    9.862859
   C    O    Li
   1   2   1
Direct configuration=    14
   0.30662516  0.61881648  0.50138224
   0.25734408  0.72902384  0.50000040
   0.30290374  0.48252185  0.49764896
   0.40097523  0.32180744  0.50096840
Co–organic framework                  
           1
     9.948088   -0.119645    0.005613
    -0.120768   10.213492    0.000238
     0.005591    0.000305    9.832425
   C    O    Li
   1   2   1
Direct configuration=    15
   0.30942481  0.61949692  0.50159057
   0.25764670  0.72875767  0.50003777
   0.29759809  0.48120560  0.49720263
   0.40317861  0.32270941  0.50116904
Co–organic framework                  
           1
     9.910563   -0.087559    0.008038
    -0.089236   10.058410    0.000329
     0.008004    0.000434    9.771557
   C    O    Li
   1   2   1
Direct configuration=    16
   0.31503248  0.62085945  0.50200781
   0.25825387  0.72822037  0.50011266
   0.28697101  0.47856959  0.49630852
   0.40759086  0.32452020  0.50157101
Co–organic framework                  
           1
     9.881505   -0.038681    0.007888
    -0.040276    9.955646    0.001800
     0.007858    0.001897    9.759286
   C    O    Li
   1   2   1
Direct configuration=    17
   0.31579682  0.62149418  0.50206579
   0.25918030  0.72759969  0.50018207
   0.28456274  0.47692994  0.49608002
   0.40830835  0.32614580  0.50167212
Co–organic framework                  
           1
     9.794331    0.107954    0.007439
     0.106605    9.647352    0.006213
     0.007420    0.006285    9.722472
   C    O    Li
   1   2   1
Direct configuration=    18
   0.31808721  0.62340674  0.50223968
   0.26197686  0.72570483  0.50039086
   0.27734099  0.47199578  0.49539431
   0.41044315  0.33106225  0.50197515
Co–organic framework                  
           1
     9.815817    0.071812    0.007550
     0.070402    9.723338    0.005125
     0.007528    0.005203    9.731546
   C    O    Li
   1   2   1
Direct configuration=    19
   0.31752480  0.62292885  0.50219685
   0.26127416  0.72619744  0.50033895
   0.27911846  0.47322369  0.49556349
   0.40993079  0.32981962  0.50190071
Co–organic framework                  
           1
     9.799188    0.098231    0.007392
     0.096762    9.680975    0.006212
     0.007370    0.006294    9.725147
   C    O    Li
   1   2   1
Direct configuration=    20
   0.31808418  0.62286495  0.50223019
   0.26159578  0.72637075  0.50037445
   0.27805321  0.47200459  0.49544995
   0.41011505  0.33092931  0.50194541
Co–organic framework                  
           1
     9.749301    0.177488    0.006919
     0.175841    9.553883    0.009474
     0.006895    0.009565    9.705950
   C    O    Li
   1   2   1
Direct configuration=    21
   0.31976572  0.62266778  0.50233034
   0.26256086  0.72689031  0.50048095
   0.27486194  0.46834002  0.49510947
   0.41065969  0.33427149  0.50207924
Co–organic framework                  
           1
     9.649526    0.336002    0.005972
     0.334000    9.299700    0.015998
     0.005946    0.016108    9.667556
   C    O    Li
   1   2   1
Direct configuration=    22
   0.32314984  0.62223984  0.50253134
   0.26449254  0.72792713  0.50069413
   0.26850697  0.46096606  0.49442935
   0.41169886  0.34103659  0.50234518
Co–organic framework                  
           1
     9.449976    0.653029    0.004079
     0.650317    8.791335    0.029046
     0.004047    0.029194    9.590769
   C    O    Li
   1   2   1
Direct configuration=    23
   0.33000705  0.62124168  0.50293635
   0.26836223  0.72999106  0.50112117
   0.25591376  0.44602841  0.49307265
   0.41356518  0.35490846  0.50286983
Co–organic framework                  
           1
     9.509498    0.558467    0.004644
     0.555967    8.942969    0.025154
     0.004613    0.025291    9.613673
   C    O    Li
   1   2   1
Direct configuration=    24
   0.32790194  0.62163501  0.50281350
   0.26720375  0.72938197  0.50099337
   0.25959152  0.45061140  0.49347489
   0.41315101  0.35054124  0.50271824
Co–organic framework                  
           1
     9.493143    0.581665    0.004440
     0.578700    8.911044    0.026238
     0.004399    0.026410    9.607026
   C    O    Li
   1   2   1
Direct configuration=    25
   0.32869346  0.62120315  0.50285467
   0.26735446  0.72993076  0.50102592
   0.25861073  0.44918833  0.49336250
   0.41318956  0.35184737  0.50275692
Co–organic framework                  
           1
     9.444080    0.651259    0.003830
     0.646902    8.815271    0.029490
     0.003755    0.029766    9.587085
   C    O    Li
   1   2   1
Direct configuration=    26
   0.33107591  0.61989620  0.50297847
   0.26780314  0.73158208  0.50112346
   0.25567401  0.44491116  0.49302551
   0.41329515  0.35578016  0.50287256
Co–organic framework                  
           1
     9.345953    0.790448    0.002608
     0.783304    8.623726    0.035994
     0.002469    0.036478    9.547203
   C    O    Li
   1   2   1
Direct configuration=    27
   0.33588924  0.61721262  0.50322797
   0.26867925  0.73491502  0.50131780
   0.24983513  0.43630797  0.49235281
   0.41344460  0.36373400  0.50310142
Co–organic framework                  
           1
     9.297254    0.859526    0.002002
     0.850999    8.528663    0.039221
     0.001830    0.039809    9.527410
   C    O    Li
   1   2   1
Direct configuration=    28
   0.33832869  0.61580790  0.50335379
   0.26909183  0.73660081  0.50141347
   0.24697348  0.43198717  0.49202028
   0.41345421  0.36777373  0.50321247
Co–organic framework                  
           1
     9.296306    0.846135    0.001320
     0.835786    8.559375    0.038763
     0.001101    0.039493    9.531110
   C    O    Li
   1   2   1
Direct configuration=    29
   0.33804291  0.61579087  0.50333534
   0.26875895  0.73672739  0.50138793
   0.24796697  0.43267692  0.49211482
   0.41307938  0.36697443  0.50316191
Co–organic framework                  
           1
     9.293460    0.805961   -0.000729
     0.790147    8.651510    0.037388
    -0.001085    0.038544    9.542211
   C    O    Li
   1   2   1
Direct configuration=    30
   0.33718552  0.61573863  0.50327995
   0.26776108  0.73710413  0.50131130
   0.25095143  0.43474303  0.49239868
   0.41195018  0.36458382  0.50301007
Co–organic framework                  
           1
     9.287769    0.725615   -0.004826
     0.698869    8.835780    0.034638
    -0.005458    0.036647    9.564412
   C    O    Li
   1   2   1
Direct configuration=    31
   0.33547024  0.61562733  0.50316895
   0.26576992  0.73783987  0.50115797
   0.25694417  0.43885681  0.49296769
   0.40966389  0.35984560  0.50270540
Co–organic framework                  
           1
     9.285694    0.696308   -0.006320
     0.665575    8.902994    0.033635
    -0.007053    0.035955    9.572510
   C    O    Li
   1   2   1
Direct configuration=    32
   0.33484414  0.61558192  0.50312829
   0.26504673  0.73809577  0.50110198
   0.25914722  0.44034456  0.49317618
   0.40881013  0.35814736  0.50259355
Co–organic framework                  
           1
     9.245610    0.687719   -0.010144
     0.649638    8.967203    0.033855
    -0.011051    0.036734    9.580113
   C    O    Li
   1   2   1
Direct configuration=    33
   0.33346353  0.61655773  0.50305850
   0.26489857  0.73758733  0.50106828
   0.26272920  0.44113781  0.49347281
   0.40675691  0.35688672  0.50240042
Co–organic framework                  
           1
     9.125360    0.661951   -0.021617
     0.601828    9.159829    0.034516
    -0.023046    0.039071    9.602923
   C    O    Li
   1   2   1
Direct configuration=    34
   0.32931040  0.61946115  0.50284765
   0.26444873  0.73607293  0.50096707
   0.27352698  0.44350677  0.49436630
   0.40056210  0.35312876  0.50181897
Co–organic framework                  
           1
     9.066775    0.649398   -0.027206
     0.578536    9.253674    0.034838
    -0.028890    0.040209    9.614035
   C    O    Li
   1   2   1
Direct configuration=    35
   0.32726991  0.62084149  0.50274274
   0.26422174  0.73535061  0.50091760
   0.27886447  0.44464573  0.49480700
   0.39749209  0.35133178  0.50153266
Co–organic framework                  
           1
     9.030862    0.663484   -0.029732
     0.587417    9.298332    0.036617
    -0.031542    0.042383    9.615936
   C    O    Li
   1   2   1
Direct configuration=    36
   0.32721910  0.62007487  0.50272555
   0.26371016  0.73647355  0.50090199
   0.28164367  0.44340983  0.49499027
   0.39527529  0.35221135  0.50138219
Co–organic framework                  
           1
     8.992681    0.678459   -0.032418
     0.596859    9.345809    0.038508
    -0.034361    0.044693    9.617956
   C    O    Li
   1   2   1
Direct configuration=    37
   0.32716542  0.61926385  0.50270739
   0.26316324  0.73766270  0.50088505
   0.28461134  0.44209676  0.49518612
   0.39290821  0.35314630  0.50122144
Co–organic framework                  
           1
     8.964928    0.716033   -0.033452
     0.636109    9.318800    0.040856
    -0.035347    0.046905    9.616388
   C    O    Li
   1   2   1
Direct configuration=    38
   0.32668327  0.61974191  0.50268753
   0.26374774  0.73718293  0.50091358
   0.28604698  0.44030305  0.49525245
   0.39137023  0.35494172  0.50114644
Co–organic framework                  
           1
     8.956296    0.727720   -0.033774
     0.648318    9.310400    0.041586
    -0.035654    0.047593    9.615900
   C    O    Li
   1   2   1
Direct configuration=    39
   0.32653210  0.61989174  0.50268129
   0.26393085  0.73703243  0.50092253
   0.28649761  0.43974139  0.49527329
   0.39088764  0.35550404  0.50112289
Co–organic framework                  
           1
     8.962567    0.743623   -0.032639
     0.666371    9.297368    0.042722
    -0.034466    0.048562    9.612698
   C    O    Li
   1   2   1
Direct configuration=    40
   0.32686611  0.61941867  0.50269658
   0.26409010  0.73736936  0.50094183
   0.28580627  0.43875226  0.49519709
   0.39108574  0.35662932  0.50116450
Co–organic framework                  
           1
     8.981379    0.791329   -0.029233
     0.720530    9.258272    0.046129
    -0.030903    0.051469    9.603091
   C    O    Li
   1   2   1
Direct configuration=    41
   0.32787057  0.61799556  0.50274253
   0.26456542  0.73838095  0.50099956
   0.28373977  0.43578365  0.49496904
   0.39167246  0.36000944  0.50128887
Co–organic framework                  
           1
     9.019003    0.886741   -0.022421
     0.828849    9.180081    0.052944
    -0.023777    0.057282    9.583877
   C    O    Li
   1   2   1
Direct configuration=    42
   0.32989430  0.61512568  0.50283499
   0.26550141  0.74040898  0.50111402
   0.27965203  0.42983893  0.49451623
   0.39280047  0.36679601  0.50153476
Co–organic framework                  
           1
     9.005785    0.853223   -0.024814
     0.790797    9.207550    0.050550
    -0.026280    0.055240    9.590627
   C    O    Li
   1   2   1
Direct configuration=    43
   0.32917269  0.61615089  0.50280212
   0.26518290  0.73969292  0.50107452
   0.28105630  0.43193313  0.49467301
   0.39243633  0.36439267  0.50145036
Co–organic framework                  
           1
     9.010275    0.862156   -0.024089
     0.801518    9.195004    0.051102
    -0.025511    0.055653    9.588687
   C    O    Li
   1   2   1
Direct configuration=    44
   0.32919181  0.61613353  0.50280422
   0.26541717  0.73961291  0.50108957
   0.28057316  0.43149346  0.49462580
   0.39266607  0.36492971  0.50148041
Co–organic framework                  
           1
     9.023744    0.888955   -0.021914
     0.833683    9.157366    0.052758
    -0.023203    0.056895    9.582869
   C    O    Li
   1   2   1
Direct configuration=    45
   0.32924924  0.61608132  0.50281053
   0.26612001  0.73937185  0.50113471
   0.27912612  0.43017383  0.49448435
   0.39335285  0.36654260  0.50157041
Co–organic framework                  
           1
     9.050682    0.942552   -0.017564
     0.898011    9.082090    0.056071
    -0.018588    0.059377    9.571233
   C    O    Li
   1   2   1
Direct configuration=    46
   0.32936435  0.61597612  0.50282316
   0.26752586  0.73888362  0.50122484
   0.27624618  0.42753085  0.49420243
   0.39471183  0.36977902  0.50174957
Co–organic framework                  
           1
     9.056701    0.954527   -0.016592
     0.912385    9.065270    0.056811
    -0.017557    0.059932    9.568633
   C    O    Li
   1   2   1
Direct configuration=    47
   0.32939020  0.61595225  0.50282598
   0.26784008  0.73877176  0.50124492
   0.27560901  0.42693857  0.49413988
   0.39500892  0.37050702  0.50178922
Co–organic framework                  
           1
     9.061158    0.956645   -0.016021
     0.915038    9.064503    0.057049
    -0.016973    0.060127    9.566501
   C    O    Li
   1   2   1
Direct configuration=    48
   0.32936637  0.61578818  0.50282083
   0.26794912  0.73893665  0.50125695
   0.27520392  0.42675513  0.49410465
   0.39532880  0.37068964  0.50181757
Co–organic framework                  
           1
     9.071469    0.961545   -0.014701
     0.921178    9.062728    0.057599
    -0.015622    0.060579    9.561569
   C    O    Li
   1   2   1
Direct configuration=    49
   0.32931138  0.61540853  0.50280893
   0.26820116  0.73931816  0.50128478
   0.27426725  0.42633083  0.49402317
   0.39606842  0.37111209  0.50188312
Co–organic framework                  
           1
     9.069853    0.961703   -0.014633
     0.921005    9.064306    0.057679
    -0.015561    0.060682    9.559373
   C    O    Li
   1   2   1
Direct configuration=    50
   0.32907912  0.61547512  0.50279340
   0.26836769  0.73934100  0.50129782
   0.27418670  0.42626700  0.49401538
   0.39621470  0.37108649  0.50189339
Co–organic framework                  
           1
     9.065002    0.962176   -0.014431
     0.920485    9.069042    0.057918
    -0.015380    0.060991    9.552785
   C    O    Li
   1   2   1
Direct configuration=    51
   0.32838223  0.61567488  0.50274681
   0.26886734  0.73940949  0.50133696
   0.27394502  0.42607554  0.49399201
   0.39665362  0.37100969  0.50192422
Co–organic framework                  
           1
     9.055302    0.963123   -0.014027
     0.919445    9.078513    0.058398
    -0.015018    0.061609    9.539609
   C    O    Li
   1   2   1
Direct configuration=    52
   0.32698773  0.61607435  0.50265359
   0.26986721  0.73954628  0.50141526
   0.27346136  0.42569288  0.49394526
   0.39753191  0.37085609  0.50198590
Co–organic framework                  
           1
     9.058253    0.962835   -0.014150
     0.919761    9.075632    0.058252
    -0.015128    0.061421    9.543617
   C    O    Li
   1   2   1
Direct configuration=    53
   0.32741236  0.61595287  0.50268197
   0.26956272  0.73950478  0.50139142
   0.27360867  0.42580913  0.49395949
   0.39726446  0.37090283  0.50196712
Co–organic framework                  
           1
     9.056981    0.962717   -0.014145
     0.919318    9.077481    0.058295
    -0.015131    0.061488    9.542386
   C    O    Li
   1   2   1
Direct configuration=    54
   0.32730019  0.61594979  0.50267359
   0.26963467  0.73956029  0.50139820
   0.27358841  0.42576917  0.49395690
   0.39732495  0.37089035  0.50197130
Co–organic framework                  
           1
     9.053165    0.962364   -0.014132
     0.917988    9.083028    0.058422
    -0.015140    0.061686    9.538691
   C    O    Li
   1   2   1
Direct configuration=    55
   0.32696365  0.61594057  0.50264845
   0.26985056  0.73972676  0.50141855
   0.27352758  0.42564933  0.49394913
   0.39750643  0.37085295  0.50198387
Co–organic framework                  
           1
     9.045533    0.961659   -0.014105
     0.915327    9.094122    0.058677
    -0.015157    0.062083    9.531301
   C    O    Li
   1   2   1
Direct configuration=    56
   0.32629027  0.61592213  0.50259815
   0.27028259  0.74005951  0.50145926
   0.27340583  0.42540979  0.49393359
   0.39786952  0.37077818  0.50200900
Co–organic framework                  
           1
     9.030268    0.960248   -0.014051
     0.910006    9.116311    0.059187
    -0.015192    0.062876    9.516521
   C    O    Li
   1   2   1
Direct configuration=    57
   0.32494237  0.61588532  0.50249747
   0.27114767  0.74072413  0.50154074
   0.27316192  0.42493134  0.49390248
   0.39859626  0.37062882  0.50205931
Co–organic framework                  
           1
     8.999740    0.957426   -0.013943
     0.899365    9.160687    0.060206
    -0.015261    0.064463    9.486961
   C    O    Li
   1   2   1
Direct configuration=    58
   0.32224192  0.61581196  0.50229580
   0.27288188  0.74204997  0.50170389
   0.27267246  0.42397685  0.49384021
   0.40005195  0.37033082  0.50216009
Co–organic framework                  
           1
     9.014492    0.958790   -0.013995
     0.904507    9.139244    0.059713
    -0.015227    0.063696    9.501244
   C    O    Li
   1   2   1
Direct configuration=    59
   0.32355132  0.61584715  0.50239354
   0.27203995  0.74141257  0.50162486
   0.27291055  0.42443574  0.49387036
   0.39934639  0.37047414  0.50211124
Co–organic framework                  
           1
     8.998587    0.959461   -0.014357
     0.902571    9.148829    0.060043
    -0.015648    0.064215    9.491401
   C    O    Li
   1   2   1
Direct configuration=    60
   0.32260127  0.61595692  0.50232586
   0.27265876  0.74168129  0.50167803
   0.27303756  0.42406614  0.49387029
   0.39955062  0.37046526  0.50212583
Co–organic framework                  
           1
     8.950872    0.961477   -0.015443
     0.896762    9.177585    0.061032
    -0.016909    0.065771    9.461871
   C    O    Li
   1   2   1
Direct configuration=    61
   0.31974612  0.61628662  0.50212245
   0.27451880  0.74248607  0.50183776
   0.27341890  0.42295844  0.49387012
   0.40016439  0.37043848  0.50216968
Co–organic framework                  
           1
     8.855443    0.965507   -0.017616
     0.885144    9.235098    0.063010
    -0.019432    0.068883    9.402812
   C    O    Li
   1   2   1
Direct configuration=    62
   0.31400549  0.61694848  0.50171358
   0.27826062  0.74408742  0.50215855
   0.27418356  0.42074959  0.49387005
   0.40139855  0.37038411  0.50225782
Co–organic framework                  
           1
     8.813397    0.968772   -0.018528
     0.885761    9.222078    0.063365
    -0.020394    0.069417    9.376574
   C    O    Li
   1   2   1
Direct configuration=    63
   0.31146322  0.61803024  0.50155213
   0.28005452  0.74368663  0.50228370
   0.27456659  0.41989266  0.49387603
   0.40176389  0.37056008  0.50228814
Co–organic framework                  
           1
     8.830985    0.967406   -0.018147
     0.885503    9.227524    0.063217
    -0.019991    0.069194    9.387549
   C    O    Li
   1   2   1
Direct configuration=    64
   0.31253192  0.61757616  0.50161999
   0.27930044  0.74385518  0.50223111
   0.27440551  0.42025177  0.49387348
   0.40161034  0.37048650  0.50227541
Co–organic framework                  
           1
     8.829597    0.967492   -0.018024
     0.886624    9.216840    0.063102
    -0.019842    0.068999    9.384812
   C    O    Li
   1   2   1
Direct configuration=    65
   0.31261383  0.61741640  0.50162227
   0.27929304  0.74383792  0.50223040
   0.27433339  0.42027295  0.49386824
   0.40160795  0.37064234  0.50227909
Co–organic framework                  
           1
     8.825432    0.967750   -0.017656
     0.889989    9.184789    0.062760
    -0.019392    0.068416    9.376598
   C    O    Li
   1   2   1
Direct configuration=    66
   0.31285971  0.61693653  0.50162910
   0.27927082  0.74378609  0.50222827
   0.27411699  0.42033657  0.49385249
   0.40160069  0.37111042  0.50229014
Co–organic framework                  
           1
     8.817103    0.968267   -0.016921
     0.896720    9.120687    0.062074
    -0.018494    0.067250    9.360171
   C    O    Li
   1   2   1
Direct configuration=    67
   0.31335242  0.61597333  0.50164275
   0.27922646  0.74368206  0.50222400
   0.27368389  0.42046430  0.49382099
   0.40158545  0.37204992  0.50231226
Co–organic framework                  
           1
     8.800444    0.969299   -0.015451
     0.910180    8.992483    0.060704
    -0.016697    0.064918    9.327317
   C    O    Li
   1   2   1
Direct configuration=    68
   0.31434165  0.61403293  0.50166997
   0.27913795  0.74347252  0.50221545
   0.27281647  0.42072173  0.49375794
   0.40155214  0.37394243  0.50235664
Co–organic framework                  
           1
     8.797253    0.968421   -0.015412
     0.910014    8.982847    0.060539
    -0.016639    0.064696    9.323657
   C    O    Li
   1   2   1
Direct configuration=    69
   0.31440877  0.61374608  0.50166800
   0.27911849  0.74355980  0.50221652
   0.27279641  0.42077224  0.49375723
   0.40152454  0.37409148  0.50235825
Co–organic framework                  
           1
     8.787987    0.965871   -0.015301
     0.909532    8.954864    0.060058
    -0.016470    0.064051    9.313027
   C    O    Li
   1   2   1
Direct configuration=    70
   0.31460385  0.61291212  0.50166227
   0.27906195  0.74381357  0.50221963
   0.27273811  0.42091909  0.49375516
   0.40144431  0.37452482  0.50236293
Co–organic framework                  
           1
     8.791154    0.966743   -0.015339
     0.909697    8.964429    0.060223
    -0.016528    0.064272    9.316660
   C    O    Li
   1   2   1
Direct configuration=    71
   0.31453703  0.61319805  0.50166424
   0.27908132  0.74372657  0.50221856
   0.27275807  0.42086874  0.49375587
   0.40147180  0.37437625  0.50236133
Co–organic framework                  
           1
     8.787369    0.964895   -0.015450
     0.908134    8.957938    0.060003
    -0.016629    0.064028    9.313958
   C    O    Li
   1   2   1
Direct configuration=    72
   0.31447321  0.61310074  0.50165716
   0.27911004  0.74372355  0.50222098
   0.27282659  0.42094852  0.49376262
   0.40143838  0.37439680  0.50235925
Co–organic framework                  
           1
     8.776013    0.959354   -0.015781
     0.903446    8.938466    0.059344
    -0.016933    0.063298    9.305850
   C    O    Li
   1   2   1
Direct configuration=    73
   0.31428166  0.61280859  0.50163588
   0.27919624  0.74371450  0.50222821
   0.27303224  0.42118804  0.49378289
   0.40133808  0.37445847  0.50235302
Co–organic framework                  
           1
     8.753302    0.948271   -0.016443
     0.894070    8.899523    0.058026
    -0.017541    0.061836    9.289635
   C    O    Li
   1   2   1
Direct configuration=    74
   0.31389788  0.61222283  0.50159324
   0.27936884  0.74369646  0.50224271
   0.27344420  0.42166832  0.49382350
   0.40113728  0.37458199  0.50234055
Co–organic framework                  
           1
     8.707880    0.926104   -0.017768
     0.875318    8.821637    0.055389
    -0.018757    0.058914    9.257205
   C    O    Li
   1   2   1
Direct configuration=    75
   0.31312768  0.61104551  0.50150762
   0.27971489  0.74366056  0.50227176
   0.27427081  0.42263384  0.49390505
   0.40073483  0.37482970  0.50231557
Co–organic framework                  
           1
     8.617036    0.881772   -0.020418
     0.837814    8.665864    0.050116
    -0.021189    0.053069    9.192345
   C    O    Li
   1   2   1
Direct configuration=    76
   0.31157652  0.60866729  0.50133502
   0.28041038  0.74358953  0.50233016
   0.27593479  0.42458499  0.49406939
   0.39992652  0.37532780  0.50226543
Co–organic framework                  
           1
     8.666867    0.906090   -0.018965
     0.858386    8.751310    0.053009
    -0.019855    0.056275    9.227923
   C    O    Li
   1   2   1
Direct configuration=    77
   0.31243947  0.60999844  0.50143124
   0.28002511  0.74362761  0.50229781
   0.27500995  0.42349200  0.49397783
   0.40037369  0.37505157  0.50229312
Co–organic framework                  
           1
     8.664595    0.904601   -0.019016
     0.857102    8.747049    0.052848
    -0.019900    0.056097    9.226009
   C    O    Li
   1   2   1
Direct configuration=    78
   0.31239116  0.60991594  0.50142565
   0.28004440  0.74363617  0.50229971
   0.27503924  0.42356391  0.49398152
   0.40037341  0.37505359  0.50229312
Co–organic framework                  
           1
     8.657779    0.900134   -0.019171
     0.853252    8.734266    0.052365
    -0.020035    0.055562    9.220267
   C    O    Li
   1   2   1
Direct configuration=    79
   0.31224618  0.60966830  0.50140887
   0.28010228  0.74366189  0.50230542
   0.27512716  0.42377976  0.49399261
   0.40037259  0.37505966  0.50229311
Co–organic framework                  
           1
     8.644148    0.891201   -0.019480
     0.845551    8.708699    0.051400
    -0.020304    0.054494    9.208782
   C    O    Li
   1   2   1
Direct configuration=    80
   0.31195586  0.60917219  0.50137525
   0.28021815  0.74371346  0.50231685
   0.27530325  0.42421215  0.49401482
   0.40037095  0.37507181  0.50229308