Co–organic framework                  
           1
     6.784009    0.489283    0.015269
     0.353553    8.137371    0.017942
     0.016649    0.022728    6.912741
   C    O    Li
   1   2   1
Direct configuration=     1
   0.30073650  0.60007518  0.50065708
   0.28713521  0.74707514  0.50441879
   0.26360045  0.43453207  0.49197294
   0.41637606  0.37048722  0.50295119
Co–organic framework                  
           1
     6.770282    0.485028    0.016111
     0.347111    8.146017    0.018003
     0.017507    0.022804    6.889600
   C    O    Li
   1   2   1
Direct configuration=     2
   0.30056842  0.59997181  0.50063796
   0.28716092  0.74750362  0.50445636
   0.26309260  0.43485800  0.49191598
   0.41702627  0.36983618  0.50298970
Co–organic framework                  
           1
     6.775077    0.486515    0.015817
     0.349362    8.142997    0.017982
     0.017207    0.022778    6.897684
   C    O    Li
   1   2   1
Direct configuration=     3
   0.30062729  0.60000790  0.50064466
   0.28715177  0.74735410  0.50444319
   0.26327025  0.43474434  0.49193593
   0.41679890  0.37006327  0.50297623
Co–organic framework                  
           1
     6.768091    0.485352    0.016043
     0.347677    8.141986    0.017966
     0.017438    0.022769    6.888330
   C    O    Li
   1   2   1
Direct configuration=     4
   0.30055026  0.60012332  0.50064158
   0.28717719  0.74734580  0.50445358
   0.26319217  0.43483471  0.49192218
   0.41692859  0.36986578  0.50298266
Co–organic framework                  
           1
     6.750776    0.482470    0.016604
     0.343502    8.139482    0.017927
     0.018011    0.022747    6.865146
   C    O    Li
   1   2   1
Direct configuration=     5
   0.30035924  0.60040936  0.50063395
   0.28724024  0.74732524  0.50447937
   0.26299854  0.43505868  0.49188809
   0.41725019  0.36937633  0.50299859
Co–organic framework                  
           1
     6.742625    0.481113    0.016868
     0.341536    8.138304    0.017909
     0.018280    0.022736    6.854232
   C    O    Li
   1   2   1
Direct configuration=     6
   0.30026918  0.60054403  0.50063035
   0.28726999  0.74731557  0.50449155
   0.26290722  0.43516412  0.49187199
   0.41740184  0.36914589  0.50300611
Co–organic framework                  
           1
     6.734801    0.480908    0.017014
     0.340905    8.138124    0.018005
     0.018424    0.022829    6.845169
   C    O    Li
   1   2   1
Direct configuration=     7
   0.30022848  0.60057797  0.50062798
   0.28728599  0.74737838  0.50450332
   0.26291289  0.43518923  0.49186310
   0.41742085  0.36902403  0.50300559
Co–organic framework                  
           1
     6.711330    0.480291    0.017455
     0.339010    8.137585    0.018292
     0.018854    0.023106    6.817979
   C    O    Li
   1   2   1
Direct configuration=     8
   0.30010627  0.60067977  0.50062087
   0.28733408  0.74756682  0.50453868
   0.26292993  0.43526457  0.49183640
   0.41747793  0.36865844  0.50300405
Co–organic framework                  
           1
     6.664387    0.479057    0.018336
     0.335221    8.136507    0.018865
     0.019715    0.023662    6.763600
   C    O    Li
   1   2   1
Direct configuration=     9
   0.29986104  0.60088343  0.50060660
   0.28743071  0.74794371  0.50460965
   0.26296418  0.43541525  0.49178277
   0.41759228  0.36792721  0.50300098
Co–organic framework                  
           1
     6.570501    0.476589    0.020098
     0.327642    8.134351    0.020013
     0.021436    0.024772    6.654841
   C    O    Li
   1   2   1
Direct configuration=    10
   0.29936736  0.60129092  0.50057787
   0.28762572  0.74869750  0.50475264
   0.26303336  0.43571663  0.49167461
   0.41782178  0.36646455  0.50299488
Co–organic framework                  
           1
     6.548846    0.476905    0.020664
     0.327462    8.127365    0.020276
     0.022005    0.025008    6.628136
   C    O    Li
   1   2   1
Direct configuration=    11
   0.29941829  0.60131810  0.50058528
   0.28764963  0.74879472  0.50478383
   0.26282600  0.43584058  0.49162674
   0.41795429  0.36621620  0.50300416
Co–organic framework                  
           1
     6.483878    0.477854    0.022361
     0.326920    8.106408    0.021064
     0.023709    0.025716    6.548022
   C    O    Li
   1   2   1
Direct configuration=    12
   0.29957162  0.60139965  0.50060756
   0.28772158  0.74908663  0.50487774
   0.26220188  0.43621292  0.49148260
   0.41835314  0.36547041  0.50303209
Co–organic framework                  
           1
     6.353943    0.479752    0.025756
     0.325836    8.064494    0.022640
     0.027117    0.027132    6.387794
   C    O    Li
   1   2   1
Direct configuration=    13
   0.29988132  0.60156297  0.50065257
   0.28786684  0.74967182  0.50506776
   0.26094114  0.43696042  0.49119107
   0.41915891  0.36397440  0.50308860
Co–organic framework                  
           1
     6.310676    0.484153    0.027222
     0.329918    8.055015    0.023792
     0.028579    0.028125    6.331508
   C    O    Li
   1   2   1
Direct configuration=    14
   0.30034382  0.60121601  0.50069036
   0.28788499  0.75026678  0.50515060
   0.26004218  0.43704171  0.49102953
   0.41957723  0.36364510  0.50312952
Co–organic framework                  
           1
     6.262407    0.489062    0.028859
     0.334473    8.044440    0.025077
     0.030210    0.029234    6.268714
   C    O    Li
   1   2   1
Direct configuration=    15
   0.30086362  0.60082797  0.50073284
   0.28790489  0.75093132  0.50524370
   0.25903232  0.43713350  0.49084794
   0.42004738  0.36327682  0.50317551
Co–organic framework                  
           1
     6.227631    0.494224    0.030096
     0.340276    8.031266    0.026109
     0.031448    0.030103    6.223012
   C    O    Li
   1   2   1
Direct configuration=    16
   0.30131334  0.60082817  0.50078404
   0.28796547  0.75114906  0.50530786
   0.25819242  0.43708593  0.49069608
   0.42037699  0.36310644  0.50321202
Co–organic framework                  
           1
     6.123302    0.509710    0.033809
     0.357684    7.991742    0.029205
     0.035161    0.032710    6.085904
   C    O    Li
   1   2   1
Direct configuration=    17
   0.30267005  0.60082743  0.50093847
   0.28814751  0.75180318  0.50550159
   0.25565874  0.43694555  0.49023773
   0.42137190  0.36259344  0.50332221
Co–organic framework                  
           1
     5.914645    0.540683    0.041233
     0.392500    7.912695    0.035396
     0.042588    0.037924    5.811689
   C    O    Li
   1   2   1
Direct configuration=    18
   0.30542999  0.60081760  0.50125242
   0.28851350  0.75311692  0.50589686
   0.25050568  0.43667905  0.48930403
   0.42339905  0.36155605  0.50354670
Co–organic framework                  
           1
     5.846145    0.553355    0.042934
     0.406500    7.895198    0.037929
     0.044232    0.040067    5.728456
   C    O    Li
   1   2   1
Direct configuration=    19
   0.30557865  0.60183710  0.50133216
   0.28906646  0.75312397  0.50606273
   0.24955628  0.43617844  0.48903050
   0.42364682  0.36103010  0.50357461
Co–organic framework                  
           1
     5.845574    0.553461    0.042949
     0.406616    7.895052    0.037950
     0.044245    0.040085    5.727762
   C    O    Li
   1   2   1
Direct configuration=    20
   0.30557989  0.60184561  0.50133283
   0.28907112  0.75312402  0.50606414
   0.24954829  0.43617428  0.48902819
   0.42364892  0.36102570  0.50357484
Co–organic framework                  
           1
     5.804043    0.563389    0.043888
     0.415800    7.909041    0.040387
     0.045088    0.042171    5.677989
   C    O    Li
   1   2   1
Direct configuration=    21
   0.30506463  0.60223902  0.50132053
   0.28970534  0.75377575  0.50623059
   0.24928109  0.43576155  0.48886654
   0.42379715  0.36039329  0.50358234
Co–organic framework                  
           1
     5.789817    0.566790    0.044209
     0.418946    7.913832    0.041222
     0.045376    0.042885    5.660941
   C    O    Li
   1   2   1
Direct configuration=    22
   0.30488666  0.60237385  0.50131626
   0.28992382  0.75399821  0.50628797
   0.24918912  0.43562060  0.48881076
   0.42384861  0.36017694  0.50358501
Co–organic framework                  
           1
     5.765290    0.571572    0.045052
     0.423422    7.916713    0.042622
     0.046185    0.044060    5.627398
   C    O    Li
   1   2   1
Direct configuration=    23
   0.30402120  0.60284559  0.50127266
   0.29065486  0.75406641  0.50642666
   0.24874889  0.43587480  0.48867267
   0.42442327  0.35938280  0.50362802
Co–organic framework                  
           1
     5.731666    0.578129    0.046208
     0.429558    7.920663    0.044541
     0.047293    0.045671    5.581413
   C    O    Li
   1   2   1
Direct configuration=    24
   0.30282910  0.60349321  0.50121258
   0.29166129  0.75415892  0.50661772
   0.24814253  0.43622377  0.48848224
   0.42521529  0.35829370  0.50368746
Co–organic framework                  
           1
     5.709203    0.585465    0.047009
     0.438588    7.914860    0.046331
     0.048057    0.047088    5.549916
   C    O    Li
   1   2   1
Direct configuration=    25
   0.30199964  0.60312931  0.50114363
   0.29250379  0.75441858  0.50679017
   0.24773246  0.43688796  0.48833817
   0.42561232  0.35773375  0.50372804
Co–organic framework                  
           1
     5.694087    0.590401    0.047548
     0.444665    7.910955    0.047536
     0.048572    0.048042    5.528722
   C    O    Li
   1   2   1
Direct configuration=    26
   0.30143964  0.60288492  0.50109714
   0.29307270  0.75459274  0.50690672
   0.24745469  0.43733564  0.48824057
   0.42588118  0.35735631  0.50375557
Co–organic framework                  
           1
     5.681526    0.595318    0.047899
     0.451537    7.901056    0.048558
     0.048906    0.048820    5.512027
   C    O    Li
   1   2   1
Direct configuration=    27
   0.30102511  0.60279259  0.50106895
   0.29356267  0.75450536  0.50699850
   0.24732823  0.43771248  0.48816593
   0.42593220  0.35715917  0.50376662
Co–organic framework                  
           1
     5.643842    0.610070    0.048952
     0.472151    7.871361    0.051626
     0.049907    0.051155    5.461942
   C    O    Li
   1   2   1
Direct configuration=    28
   0.29977904  0.60251623  0.50098427
   0.29503626  0.75424167  0.50727461
   0.24694653  0.43884486  0.48794117
   0.42608638  0.35656685  0.50379995
Co–organic framework                  
           1
     5.635451    0.616997    0.049201
     0.481390    7.868684    0.053024
     0.050112    0.052223    5.451466
   C    O    Li
   1   2   1
Direct configuration=    29
   0.29970049  0.60249459  0.50098701
   0.29537459  0.75424247  0.50734892
   0.24689202  0.43885970  0.48787381
   0.42588111  0.35657285  0.50379027
Co–organic framework                  
           1
     5.610278    0.637777    0.049948
     0.509104    7.860652    0.057218
     0.050726    0.055426    5.420037
   C    O    Li
   1   2   1
Direct configuration=    30
   0.29946458  0.60242989  0.50099525
   0.29639118  0.75424379  0.50757224
   0.24672817  0.43890443  0.48767132
   0.42526428  0.35659150  0.50376120
Co–organic framework                  
           1
     5.602533    0.648200    0.050646
     0.522975    7.860802    0.059478
     0.051359    0.057130    5.406707
   C    O    Li
   1   2   1
Direct configuration=    31
   0.29958353  0.60249643  0.50102426
   0.29683414  0.75422241  0.50768083
   0.24614132  0.43898911  0.48751648
   0.42528922  0.35646165  0.50377843
Co–organic framework                  
           1
     5.579299    0.679469    0.052740
     0.564588    7.861251    0.066256
     0.053255    0.062244    5.366717
   C    O    Li
   1   2   1
Direct configuration=    32
   0.29994043  0.60269558  0.50111139
   0.29816515  0.75415628  0.50800727
   0.24437752  0.43924586  0.48705093
   0.42536511  0.35607189  0.50383040
Co–organic framework                  
           1
     5.532830    0.742007    0.056928
     0.647815    7.862150    0.079812
     0.057049    0.072471    5.286737
   C    O    Li
   1   2   1
Direct configuration=    33
   0.30065447  0.60309088  0.50128621
   0.30084023  0.75401185  0.50866417
   0.24083011  0.43977572  0.48611362
   0.42552340  0.35529116  0.50393600
Co–organic framework                  
           1
     5.439893    0.867084    0.065305
     0.814267    7.863948    0.106923
     0.064636    0.092925    5.126777
   C    O    Li
   1   2   1
Direct configuration=    34
   0.30208380  0.60386943  0.50163814
   0.30624439  0.75367350  0.50999452
   0.23365351  0.44090215  0.48421341
   0.42586651  0.35372453  0.50415393
Co–organic framework                  
           1
     5.494821    0.793161    0.060354
     0.715890    7.862885    0.090900
     0.060152    0.080836    5.221317
   C    O    Li
   1   2   1
Direct configuration=    35
   0.30123686  0.60342364  0.50142719
   0.30298200  0.75393406  0.50918749
   0.23799820  0.44015442  0.48536850
   0.42563115  0.35465748  0.50401681
Co–organic framework                  
           1
     5.485716    0.803801    0.061107
     0.730409    7.859478    0.093265
     0.060833    0.082592    5.206509
   C    O    Li
   1   2   1
Direct configuration=    36
   0.30132979  0.60356282  0.50145630
   0.30351235  0.75373213  0.50931666
   0.23732186  0.44047485  0.48519057
   0.42568420  0.35439981  0.50403647
Co–organic framework                  
           1
     5.458400    0.835723    0.063364
     0.773964    7.849256    0.100361
     0.062876    0.087860    5.162086
   C    O    Li
   1   2   1
Direct configuration=    37
   0.30160797  0.60398020  0.50154365
   0.30510799  0.75312337  0.50970529
   0.23528649  0.44144006  0.48465512
   0.42584576  0.35362597  0.50409594
Co–organic framework                  
           1
     5.403768    0.899567    0.067878
     0.861074    7.828812    0.114553
     0.066962    0.098395    5.073240
   C    O    Li
   1   2   1
Direct configuration=    38
   0.30216051  0.60481408  0.50171853
   0.30832716  0.75188771  0.51048955
   0.23117707  0.44339452  0.48357414
   0.42618348  0.35207330  0.50421779
Co–organic framework                  
           1
     5.442593    0.854196    0.064670
     0.799168    7.843341    0.104467
     0.064058    0.090908    5.136380
   C    O    Li
   1   2   1
Direct configuration=    39
   0.30177333  0.60422266  0.50159398
   0.30599844  0.75279239  0.50992197
   0.23415426  0.44197037  0.48435713
   0.42592219  0.35318418  0.50412692
Co–organic framework                  
           1
     5.431359    0.866556    0.065472
     0.815560    7.841768    0.107294
     0.064754    0.093025    5.119790
   C    O    Li
   1   2   1
Direct configuration=    40
   0.30183019  0.60421775  0.50161057
   0.30662959  0.75267713  0.51008602
   0.23347173  0.44243796  0.48416406
   0.42591670  0.35283677  0.50413936
Co–organic framework                  
           1
     5.397658    0.903639    0.067876
     0.864737    7.837049    0.115772
     0.066841    0.099374    5.070019
   C    O    Li
   1   2   1
Direct configuration=    41
   0.30200121  0.60420267  0.50166048
   0.30852852  0.75232756  0.51057966
   0.23141509  0.44384542  0.48358252
   0.42590340  0.35179396  0.50417734
Co–organic framework                  
           1
     5.330255    0.977804    0.072685
     0.963092    7.827611    0.132729
     0.071014    0.112073    4.970478
   C    O    Li
   1   2   1
Direct configuration=    42
   0.30234593  0.60417047  0.50176118
   0.31235966  0.75160526  0.51157610
   0.22724650  0.44668900  0.48240536
   0.42589612  0.34970488  0.50425737
Co–organic framework                  
           1
     5.195449    1.126134    0.082304
     1.159800    7.808736    0.166644
     0.079362    0.137472    4.771396
   C    O    Li
   1   2   1
Direct configuration=    43
   0.30304660  0.60409768  0.50196623
   0.32016067  0.75006523  0.51360691
   0.21868005  0.45249530  0.47999272
   0.42596089  0.34551140  0.50443415
Co–organic framework                  
           1
     4.925839    1.422794    0.101540
     1.553218    7.770986    0.234473
     0.096057    0.188269    4.373233
   C    O    Li
   1   2   1
Direct configuration=    44
   0.30449686  0.60391646  0.50239204
   0.33636595  0.74657825  0.51783224
   0.20055930  0.46462398  0.47491713
   0.42642610  0.33705092  0.50485859
Co–organic framework                  
           1
     4.921486    1.427910    0.101925
     1.559987    7.770722    0.235634
     0.096398    0.189136    4.366453
   C    O    Li
   1   2   1
Direct configuration=    45
   0.30452812  0.60392273  0.50240185
   0.33671749  0.74647336  0.51792343
   0.20016063  0.46489537  0.47480590
   0.42644197  0.33687813  0.50486881
Co–organic framework                  
           1
     4.908429    1.443258    0.103081
     1.580295    7.769930    0.239117
     0.097424    0.191737    4.346113
   C    O    Li
   1   2   1
Direct configuration=    46
   0.30462198  0.60394149  0.50243133
   0.33777377  0.74615766  0.51819744
   0.19896207  0.46571088  0.47447159
   0.42649039  0.33635958  0.50489965
Co–organic framework                  
           1
     4.882315    1.473955    0.105391
     1.620911    7.768346    0.246084
     0.099476    0.196938    4.305434
   C    O    Li
   1   2   1
Direct configuration=    47
   0.30481018  0.60397852  0.50249050
   0.33989646  0.74551987  0.51874806
   0.19654943  0.46735001  0.47379907
   0.42659214  0.33532121  0.50496237
Co–organic framework                  
           1
     4.830086    1.535347    0.110013
     1.702142    7.765179    0.260017
     0.103579    0.207342    4.224076
   C    O    Li
   1   2   1
Direct configuration=    48
   0.30518856  0.60405064  0.50260969
   0.34418307  0.74421844  0.51985997
   0.19166098  0.47066127  0.47243829
   0.42681560  0.33323926  0.50509205
Co–organic framework                  
           1
     4.725628    1.658132    0.119256
     1.864605    7.758844    0.287884
     0.111785    0.228148    4.061359
   C    O    Li
   1   2   1
Direct configuration=    49
   0.30595361  0.60418689  0.50285164
   0.35292758  0.74150871  0.52212795
   0.18162238  0.47742093  0.46965152
   0.42734465  0.32905307  0.50536888
Co–organic framework                  
           1
     4.796303    1.575057    0.113002
     1.754685    7.763130    0.269030
     0.106233    0.214071    4.171452
   C    O    Li
   1   2   1
Direct configuration=    50
   0.30542364  0.60410605  0.50268275
   0.34676047  0.74349679  0.52052926
   0.18879535  0.47264695  0.47163151
   0.42686875  0.33191983  0.50515648
Co–organic framework                  
           1
     4.780407    1.590782    0.114152
     1.775603    7.759166    0.272611
     0.107242    0.216726    4.148882
   C    O    Li
   1   2   1
Direct configuration=    51
   0.30554798  0.60422437  0.50272577
   0.34801428  0.74294891  0.52084811
   0.18741295  0.47366523  0.47124181
   0.42687299  0.33133110  0.50518432
Co–organic framework                  
           1
     4.732717    1.637957    0.117600
     1.838357    7.747273    0.283356
     0.110270    0.224692    4.081174
   C    O    Li
   1   2   1
Direct configuration=    52
   0.30592089  0.60457872  0.50285516
   0.35180030  0.74129128  0.52181046
   0.18323255  0.47673749  0.47006462
   0.42689447  0.32956212  0.50526976
Co–organic framework                  
           1
     4.637338    1.732306    0.124498
     1.963865    7.723489    0.304844
     0.116326    0.240625    3.945758
   C    O    Li
   1   2   1
Direct configuration=    53
   0.30666601  0.60528379  0.50311601
   0.35952405  0.73788972  0.52377103
   0.17466693  0.48298952  0.46766052
   0.42699121  0.32600657  0.50545244
Co–organic framework                  
           1
     4.446580    1.921004    0.138293
     2.214881    7.675920    0.347822
     0.128437    0.272490    3.674925
   C    O    Li
   1   2   1
Direct configuration=    54
   0.30815407  0.60667922  0.50364654
   0.37562029  0.73071862  0.52784477
   0.15666156  0.49595390  0.46264117
   0.42741228  0.31881787  0.50586752
Co–organic framework                  
           1
     4.416574    1.925295    0.138019
     2.218970    7.648858    0.349138
     0.127926    0.273435    3.651545
   C    O    Li
   1   2   1
Direct configuration=    55
   0.30860284  0.60710476  0.50380303
   0.37678821  0.72937545  0.52813691
   0.15550790  0.49730661  0.46223652
   0.42694926  0.31838278  0.50582354
Co–organic framework                  
           1
     4.326555    1.938166    0.137198
     2.231236    7.567672    0.353087
     0.126394    0.276269    3.581403
   C    O    Li
   1   2   1
Direct configuration=    56
   0.30995615  0.60838325  0.50427473
   0.38033291  0.72531903  0.52902166
   0.15200620  0.50139180  0.46101202
   0.42555295  0.31707553  0.50569159
Co–organic framework                  
           1
     4.146516    1.963908    0.135557
     2.255768    7.405301    0.360983
     0.123328    0.281937    3.441121
   C    O    Li
   1   2   1
Direct configuration=    57
   0.31270618  0.61095108  0.50523167
   0.38767812  0.71703901  0.53084307
   0.14474831  0.50973024  0.45849762
   0.42271561  0.31444928  0.50542763
Co–organic framework                  
           1
     4.290919    1.943261    0.136873
     2.236092    7.535533    0.354649
     0.125787    0.277391    3.553637
   C    O    Li
   1   2   1
Direct configuration=    58
   0.31042584  0.60887527  0.50444117
   0.38133532  0.72397051  0.52929190
   0.15101884  0.50275039  0.46062759
   0.42506821  0.31657343  0.50563934
Co–organic framework                  
           1
     4.280423    1.944762    0.136778
     2.237522    7.526068    0.355110
     0.125608    0.277721    3.545459
   C    O    Li
   1   2   1
Direct configuration=    59
   0.31058719  0.60902521  0.50449728
   0.38176969  0.72348381  0.52939932
   0.15058960  0.50324051  0.46047945
   0.42490174  0.31642007  0.50562395
Co–organic framework                  
           1
     4.239296    1.944955    0.136627
     2.228854    7.498359    0.357746
     0.124298    0.279169    3.524613
   C    O    Li
   1   2   1
Direct configuration=    60
   0.31091158  0.60809286  0.50459060
   0.38253774  0.72328054  0.52979952
   0.15069941  0.50433986  0.46016693
   0.42369949  0.31645635  0.50544295
Co–organic framework                  
           1
     4.115913    1.945534    0.136176
     2.202852    7.415235    0.365656
     0.120365    0.283514    3.462075
   C    O    Li
   1   2   1
Direct configuration=    61
   0.31189544  0.60528245  0.50487531
   0.38486823  0.72266105  0.53100772
   0.15103258  0.50764963  0.45922004
   0.42005196  0.31657648  0.50489693
Co–organic framework                  
           1
     3.869148    1.946691    0.135274
     2.150848    7.248986    0.381475
     0.112501    0.292203    3.337000
   C    O    Li
   1   2   1
Direct configuration=    62
   0.31393034  0.59957937  0.50547415
   0.38969462  0.72136121  0.53347113
   0.15172244  0.51434047  0.45726855
   0.41250081  0.31688856  0.50378617
Co–organic framework                  
           1
     3.769218    1.965656    0.143978
     2.123612    7.263353    0.405646
     0.113349    0.305500    3.293951
   C    O    Li
   1   2   1
Direct configuration=    63
   0.31637090  0.59742787  0.50656582
   0.38969890  0.72476549  0.53522607
   0.15079308  0.51486044  0.45478033
   0.41098533  0.31511580  0.50342778
Co–organic framework                  
           1
     3.556012    2.006118    0.162548
     2.065505    7.294007    0.457215
     0.115159    0.333870    3.202104
   C    O    Li
   1   2   1
Direct configuration=    64
   0.32170654  0.59279183  0.50894532
   0.38978338  0.73198717  0.53896775
   0.14875120  0.51600161  0.44939799
   0.40760709  0.31138900  0.50268895
Co–organic framework                  
           1
     3.499727    2.009987    0.167349
     2.039702    7.295865    0.470680
     0.115071    0.340788    3.181298
   C    O    Li
   1   2   1
Direct configuration=    65
   0.32397787  0.59282171  0.51009992
   0.38892789  0.73352689  0.53978188
   0.14773157  0.51584089  0.44757247
   0.40721088  0.30998012  0.50254572
Co–organic framework                  
           1
     3.330872    2.021595    0.181755
     1.962291    7.301442    0.511075
     0.114810    0.361541    3.118877
   C    O    Li
   1   2   1
Direct configuration=    66
   0.33092801  0.59286638  0.51357520
   0.38635438  0.73814582  0.54222500
   0.14460504  0.51538569  0.44206635
   0.40596078  0.30577172  0.50213345
Co–organic framework                  
           1
     2.993162    2.044810    0.210565
     1.807470    7.312594    0.591865
     0.114286    0.403048    2.994037
   C    O    Li
   1   2   1
Direct configuration=    67
   0.34570250  0.59266828  0.52059567
   0.38116154  0.74738338  0.54711586
   0.13791852  0.51464627  0.43087162
   0.40306565  0.29747167  0.50141685
Co–organic framework                  
           1
     2.835893    2.055621    0.223982
     1.735371    7.317788    0.629488
     0.114043    0.422378    2.935900
   C    O    Li
   1   2   1
Direct configuration=    68
   0.35354065  0.59226426  0.52393191
   0.37869175  0.75168753  0.54939882
   0.13433144  0.51448422  0.42547746
   0.40128437  0.29373359  0.50119181
Co–organic framework                  
           1
     2.751530    2.023345    0.219829
     1.672942    7.217773    0.618011
     0.109298    0.413927    2.915267
   C    O    Li
   1   2   1
Direct configuration=    69
   0.35943484  0.59285356  0.52997948
   0.37750262  0.75116461  0.54664064
   0.12812767  0.51765578  0.42144340
   0.40278308  0.29049565  0.50193648
Co–organic framework                  
           1
     2.717911    2.010483    0.218174
     1.648064    7.177917    0.613438
     0.107408    0.410560    2.907045
   C    O    Li
   1   2   1
Direct configuration=    70
   0.36186969  0.59307992  0.53240608
   0.37700791  0.75095622  0.54553380
   0.12559201  0.51894258  0.41982582
   0.40337860  0.28919089  0.50223430
Co–organic framework                  
           1
     2.706612    1.996744    0.210829
     1.643138    7.126489    0.590704
     0.105688    0.398274    2.912409
   C    O    Li
   1   2   1
Direct configuration=    71
   0.36413158  0.59007845  0.53757516
   0.37607677  0.75225400  0.54085269
   0.12169239  0.52182137  0.41874725
   0.40594747  0.28801579  0.50282491
Co–organic framework                  
           1
     2.676343    1.959941    0.191157
     1.629942    6.988729    0.529808
     0.101082    0.365364    2.926777
   C    O    Li
   1   2   1
Direct configuration=    72
   0.37023080  0.58200862  0.55135164
   0.37356872  0.75573035  0.52835840
   0.11118613  0.52957826  0.41589239
   0.41286256  0.28485237  0.50439757
Co–organic framework                  
           1
     2.676175    1.953961    0.188440
     1.641173    6.952347    0.517995
     0.102283    0.357884    2.933540
   C    O    Li
   1   2   1
Direct configuration=    73
   0.37256015  0.58054000  0.55678619
   0.37308931  0.75647679  0.52420831
   0.10797609  0.53057807  0.41460408
   0.41422267  0.28457475  0.50440141
Co–organic framework                  
           1
     2.675669    1.936021    0.180290
     1.674866    6.843200    0.482554
     0.105886    0.335445    2.953829
   C    O    Li
   1   2   1
Direct configuration=    74
   0.37956226  0.57613321  0.57304025
   0.37164820  0.75871209  0.51179533
   0.09832962  0.53358472  0.41075101
   0.41830813  0.28373959  0.50441341
Co–organic framework                  
           1
     2.674657    1.900141    0.163991
     1.742253    6.624907    0.411672
     0.113092    0.290566    2.994408
   C    O    Li
   1   2   1
Direct configuration=    75
   0.39365249  0.56731249  0.60525389
   0.36874859  0.76315911  0.48719048
   0.07893681  0.53964287  0.40311548
   0.42651032  0.28205513  0.50444015
Co–organic framework                  
           1
     2.674509    1.894880    0.161601
     1.752133    6.592901    0.401280
     0.114148    0.283986    3.000358
   C    O    Li
   1   2   1
Direct configuration=    76
   0.39574473  0.56601591  0.60989266
   0.36831815  0.76380463  0.48364614
   0.07606295  0.54054525  0.40201641
   0.42772239  0.28180381  0.50444479
Co–organic framework                  
           1
     2.675326    1.890613    0.157763
     1.785677    6.531832    0.387445
     0.115295    0.274427    3.015294
   C    O    Li
   1   2   1
Direct configuration=    77
   0.39753432  0.56486962  0.61438500
   0.37065136  0.76454749  0.47553668
   0.07049070  0.54118603  0.40827774
   0.42917183  0.28156646  0.50180058
Co–organic framework                  
           1
     2.677056    1.881590    0.149648
     1.856602    6.402707    0.358192
     0.117719    0.254214    3.046874
   C    O    Li
   1   2   1
Direct configuration=    78
   0.40135563  0.56243104  0.62383022
   0.37557161  0.76611061  0.45849010
   0.05866640  0.54258073  0.42143944
   0.43225458  0.28104722  0.49624024
Co–organic framework                  
           1
     2.674030    1.873385    0.145156
     1.873252    6.347231    0.358533
     0.111102    0.252834    3.074843
   C    O    Li
   1   2   1
Direct configuration=    79
   0.39782607  0.56514771  0.61796878
   0.37696888  0.76596062  0.45582145
   0.05603324  0.54382499  0.43302678
   0.43702003  0.27723628  0.49318299
Co–organic framework                  
           1
     2.670167    1.862913    0.139424
     1.894501    6.276426    0.358967
     0.102656    0.251072    3.110539
   C    O    Li
   1   2   1
Direct configuration=    80
   0.39324310  0.56865856  0.61054749
   0.37874514  0.76576983  0.45244932
   0.05269259  0.54542553  0.44767371
   0.44316738  0.27231569  0.48932947