       N       E                     dE             d eps       ncg     rms          rms(c)
DAV:   1     0.875059190621E+04    0.87506E+04   -0.34456E+05  2064   0.136E+03
DAV:   2     0.844041203122E+03   -0.79066E+04   -0.71166E+04  2400   0.421E+02
DAV:   3    -0.124660283527E+04   -0.20906E+04   -0.19839E+04  3480   0.214E+02
DAV:   4    -0.140830520007E+04   -0.16170E+03   -0.15110E+03  3228   0.672E+01
DAV:   5    -0.141679766099E+04   -0.84925E+01   -0.77857E+01  3432   0.151E+01    0.156E+02
RMM:   6    -0.193306639175E+04   -0.51627E+03   -0.34465E+03  2773   0.136E+02    0.514E+02
RMM:   7    -0.169872818620E+04    0.23434E+03   -0.25409E+02  2071   0.461E+01    0.316E+02
RMM:   8    -0.122586522604E+04    0.47286E+03   -0.54398E+02  2300   0.445E+01    0.837E+01
RMM:   9    -0.145269609479E+04   -0.22683E+03   -0.10818E+02  2251   0.200E+01    0.185E+02
RMM:  10    -0.134509184039E+04    0.10760E+03   -0.89774E+01  2228   0.220E+01    0.143E+02
RMM:  11    -0.125053299715E+04    0.94559E+02   -0.88007E+01  2170   0.208E+01    0.989E+01
RMM:  12    -0.129076965622E+04   -0.40237E+02   -0.68384E+01  2132   0.182E+01    0.125E+02
RMM:  13    -0.127479877688E+04    0.15971E+02   -0.44502E+01  2251   0.144E+01    0.116E+02
RMM:  14    -0.121926543516E+04    0.55533E+02   -0.30517E+01  2192   0.121E+01    0.733E+01
RMM:  15    -0.123335100938E+04   -0.14086E+02   -0.20170E+01  2188   0.961E+00    0.919E+01
RMM:  16    -0.121953637056E+04    0.13815E+02   -0.13139E+01  2163   0.771E+00    0.688E+01
RMM:  17    -0.120720141751E+04    0.12335E+02   -0.65420E+00  2219   0.536E+00    0.513E+01
RMM:  18    -0.121342714049E+04   -0.62257E+01   -0.64941E+00  2248   0.518E+00    0.583E+01
RMM:  19    -0.120892290956E+04    0.45042E+01   -0.33984E+00  2253   0.382E+00    0.503E+01
RMM:  20    -0.120500356847E+04    0.39193E+01   -0.22956E+00  2271   0.314E+00    0.329E+01
RMM:  21    -0.121075341718E+04   -0.57498E+01   -0.20307E+00  2210   0.298E+00    0.564E+01
RMM:  22    -0.120707034867E+04    0.36831E+01   -0.22481E+00  2215   0.310E+00    0.333E+01
RMM:  23    -0.120781137497E+04   -0.74103E+00   -0.76474E-01  2164   0.195E+00    0.301E+01
RMM:  24    -0.120797268610E+04   -0.16131E+00   -0.36410E-01  2158   0.132E+00    0.276E+01
RMM:  25    -0.120804642769E+04   -0.73742E-01   -0.14401E-01  2169   0.809E-01    0.263E+01
RMM:  26    -0.120846339146E+04   -0.41696E+00   -0.11964E-01  2274   0.674E-01    0.282E+01
RMM:  27    -0.120843030572E+04    0.33086E-01   -0.55240E-02  2128   0.504E-01    0.267E+01
RMM:  28    -0.120845744800E+04   -0.27142E-01   -0.14021E-02  2250   0.239E-01    0.268E+01
RMM:  29    -0.120841319015E+04    0.44258E-01   -0.13078E-02  2239   0.218E-01    0.270E+01
RMM:  30    -0.120850322173E+04   -0.90032E-01   -0.12317E-02  2203   0.205E-01    0.278E+01
RMM:  31    -0.120847970089E+04    0.23521E-01   -0.10254E-02  2145   0.204E-01    0.283E+01
RMM:  32    -0.120843972922E+04    0.39972E-01   -0.23959E-02  2165   0.301E-01    0.267E+01
RMM:  33    -0.120846585661E+04   -0.26127E-01   -0.15689E-02  2165   0.259E-01    0.266E+01
RMM:  34    -0.120838207121E+04    0.83785E-01   -0.87176E-03  2157   0.178E-01    0.270E+01
RMM:  35    -0.120889326832E+04   -0.51120E+00   -0.73819E-02  2162   0.503E-01    0.316E+01
RMM:  36    -0.120958163746E+04   -0.68837E+00   -0.17704E-01  2093   0.861E-01    0.325E+01
RMM:  37    -0.120981475167E+04   -0.23311E+00   -0.21093E-01  2273   0.891E-01    0.307E+01
RMM:  38    -0.120984115922E+04   -0.26408E-01   -0.89037E-02  2183   0.643E-01    0.323E+01
RMM:  39    -0.120974380674E+04    0.97352E-01   -0.22506E-02  2384   0.302E-01    0.317E+01
RMM:  40    -0.120983005134E+04   -0.86245E-01   -0.82226E-03  2302   0.162E-01    0.315E+01
RMM:  41    -0.121017274091E+04   -0.34269E+00   -0.25753E-02  2137   0.292E-01    0.331E+01
RMM:  42    -0.121016714829E+04    0.55926E-02   -0.52777E-02  2170   0.427E-01    0.294E+01
RMM:  43    -0.121036025318E+04   -0.19310E+00   -0.29815E-02  2268   0.365E-01    0.299E+01
RMM:  44    -0.121028711783E+04    0.73135E-01   -0.76661E-02  2215   0.477E-01    0.279E+01
RMM:  45    -0.121074490271E+04   -0.45778E+00   -0.10284E-01  2248   0.554E-01    0.283E+01
RMM:  46    -0.121090395531E+04   -0.15905E+00   -0.20065E-01  2231   0.789E-01    0.279E+01
RMM:  47    -0.121169290761E+04   -0.78895E+00   -0.35674E-01  2156   0.102E+00    0.274E+01
RMM:  48    -0.121167920298E+04    0.13705E-01   -0.73774E-02  2286   0.529E-01    0.275E+01
RMM:  49    -0.121180444739E+04   -0.12524E+00   -0.33242E-02  2460   0.300E-01    0.279E+01
RMM:  50    -0.121190029529E+04   -0.95848E-01   -0.86441E-02  2133   0.546E-01    0.273E+01
RMM:  51    -0.121381549390E+04   -0.19152E+01   -0.12294E+00  2107   0.226E+00    0.305E+01
RMM:  52    -0.121374736986E+04    0.68124E-01   -0.37616E-01  2193   0.137E+00    0.294E+01
RMM:  53    -0.121478458123E+04   -0.10372E+01   -0.51235E-01  2253   0.127E+00    0.313E+01
RMM:  54    -0.121500233820E+04   -0.21776E+00   -0.14958E-01  2274   0.727E-01    0.303E+01
RMM:  55    -0.121501146479E+04   -0.91266E-02   -0.52362E-02  2401   0.417E-01    0.294E+01
RMM:  56    -0.121528493141E+04   -0.27347E+00   -0.63510E-01  2114   0.160E+00    0.293E+01
RMM:  57    -0.121530116449E+04   -0.16233E-01   -0.26172E-01  2156   0.119E+00    0.256E+01
RMM:  58    -0.121556229069E+04   -0.26113E+00   -0.11053E-01  2310   0.684E-01    0.246E+01
RMM:  59    -0.121609039132E+04   -0.52810E+00   -0.15254E-01  2247   0.671E-01    0.248E+01
RMM:  60    -0.121666901500E+04   -0.57862E+00   -0.12867E-01  2324   0.623E-01    0.264E+01
RMM:  61    -0.122095916001E+04   -0.42901E+01   -0.20677E+00  2216   0.282E+00    0.392E+01
RMM:  62    -0.121819456102E+04    0.27646E+01   -0.12705E+00  2201   0.238E+00    0.293E+01
RMM:  63    -0.121904010979E+04   -0.84555E+00   -0.75898E-01  2242   0.182E+00    0.277E+01
RMM:  64    -0.121955473179E+04   -0.51462E+00   -0.26497E-01  2291   0.101E+00    0.272E+01
RMM:  65    -0.121947627305E+04    0.78459E-01   -0.21073E-01  2364   0.843E-01    0.227E+01
RMM:  66    -0.122457089753E+04   -0.50946E+01   -0.19753E+00  2219   0.268E+00    0.483E+01
RMM:  67    -0.121991054086E+04    0.46604E+01   -0.11856E+00  2156   0.233E+00    0.342E+01
RMM:  68    -0.121988402310E+04    0.26518E-01   -0.25040E-01  2293   0.950E-01    0.311E+01
RMM:  69    -0.121993580187E+04   -0.51779E-01   -0.16341E-01  2301   0.737E-01    0.239E+01
RMM:  70    -0.122027286936E+04   -0.33707E+00   -0.27029E-01  2203   0.101E+00    0.193E+01
RMM:  71    -0.122063795431E+04   -0.36508E+00   -0.23056E-01  2282   0.981E-01    0.199E+01
RMM:  72    -0.122068169822E+04   -0.43744E-01   -0.10037E-01  2431   0.563E-01    0.193E+01
RMM:  73    -0.122075470866E+04   -0.73010E-01   -0.87774E-02  2244   0.586E-01    0.204E+01
RMM:  74    -0.122074894700E+04    0.57617E-02   -0.34952E-02  2389   0.363E-01    0.201E+01
RMM:  75    -0.122073672387E+04    0.12223E-01   -0.26392E-02  2392   0.255E-01    0.195E+01
RMM:  76    -0.122081853343E+04   -0.81810E-01   -0.13840E-01  2169   0.763E-01    0.195E+01
RMM:  77    -0.122082900058E+04   -0.10467E-01   -0.54403E-02  2341   0.487E-01    0.189E+01
RMM:  78    -0.122096802832E+04   -0.13903E+00   -0.41610E-02  2293   0.389E-01    0.189E+01
RMM:  79    -0.122100418006E+04   -0.36152E-01   -0.41839E-02  2409   0.368E-01    0.194E+01
RMM:  80    -0.122101401141E+04   -0.98314E-02   -0.14433E-02  2299   0.257E-01    0.197E+01
RMM:  81    -0.122041038209E+04    0.60363E+00   -0.38744E-01  2090   0.124E+00    0.192E+01
RMM:  82    -0.122053493678E+04   -0.12455E+00   -0.12041E-01  2188   0.787E-01    0.216E+01
RMM:  83    -0.122057608104E+04   -0.41144E-01   -0.39546E-02  2517   0.378E-01    0.214E+01
RMM:  84    -0.122041455344E+04    0.16153E+00   -0.64605E-02  2192   0.506E-01    0.220E+01
RMM:  85    -0.122040801601E+04    0.65374E-02   -0.27338E-02  2315   0.333E-01    0.218E+01
RMM:  86    -0.122422269131E+04   -0.38147E+01   -0.12835E+00  2174   0.220E+00    0.329E+01
RMM:  87    -0.122185308185E+04    0.23696E+01   -0.82086E-01  2230   0.180E+00    0.182E+01
RMM:  88    -0.122242836253E+04   -0.57528E+00   -0.27180E-01  2259   0.107E+00    0.201E+01
RMM:  89    -0.122261207872E+04   -0.18372E+00   -0.83815E-02  2368   0.566E-01    0.204E+01
RMM:  90    -0.122275525127E+04   -0.14317E+00   -0.57436E-02  2256   0.419E-01    0.209E+01
RMM:  91    -0.122315249085E+04   -0.39724E+00   -0.17984E-01  2217   0.813E-01    0.215E+01
RMM:  92    -0.122310015327E+04    0.52338E-01   -0.15695E-01  2233   0.815E-01    0.202E+01
RMM:  93    -0.122328818409E+04   -0.18803E+00   -0.84414E-02  2233   0.608E-01    0.224E+01
RMM:  94    -0.122330219879E+04   -0.14015E-01   -0.27775E-02  2234   0.380E-01    0.228E+01
RMM:  95    -0.122323912032E+04    0.63078E-01   -0.10271E-02  2334   0.199E-01    0.226E+01
RMM:  96    -0.122346681806E+04   -0.22770E+00   -0.84159E-02  2122   0.596E-01    0.245E+01
RMM:  97    -0.122332659716E+04    0.14022E+00   -0.24005E-02  2241   0.337E-01    0.247E+01
RMM:  98    -0.122326984908E+04    0.56748E-01   -0.69562E-03  2488   0.150E-01    0.245E+01
RMM:  99    -0.122324708803E+04    0.22761E-01   -0.14489E-02  2164   0.248E-01    0.264E+01
RMM: 100    -0.122315816629E+04    0.88922E-01   -0.11463E-02  2247   0.234E-01    0.266E+01
RMM: 101    -0.122505865494E+04   -0.19005E+01   -0.90388E-01  2201   0.193E+00    0.360E+01
RMM: 102    -0.122368958048E+04    0.13691E+01   -0.39086E-01  2280   0.134E+00    0.275E+01
RMM: 103    -0.122372883854E+04   -0.39258E-01   -0.10231E-01  2330   0.649E-01    0.258E+01
RMM: 104    -0.122372668178E+04    0.21568E-02   -0.73255E-02  2187   0.533E-01    0.244E+01
RMM: 105    -0.122404220595E+04   -0.31552E+00   -0.82986E-02  2181   0.562E-01    0.243E+01
RMM: 106    -0.122486719461E+04   -0.82499E+00   -0.38912E-01  2183   0.122E+00    0.260E+01
RMM: 107    -0.122494495306E+04   -0.77758E-01   -0.24335E-01  2342   0.104E+00    0.259E+01
RMM: 108    -0.122553733677E+04   -0.59238E+00   -0.19188E-01  2199   0.877E-01    0.334E+01
RMM: 109    -0.122568984176E+04   -0.15250E+00   -0.77238E-02  2234   0.645E-01    0.346E+01
RMM: 110    -0.122547833222E+04    0.21151E+00   -0.83396E-02  2282   0.560E-01    0.338E+01
RMM: 111    -0.122459148411E+04    0.88685E+00   -0.43234E-01  2145   0.137E+00    0.241E+01
RMM: 112    -0.122533203963E+04   -0.74056E+00   -0.31933E-01  2205   0.116E+00    0.249E+01
RMM: 113    -0.122579108644E+04   -0.45905E+00   -0.12573E-01  2342   0.705E-01    0.250E+01
RMM: 114    -0.122607653776E+04   -0.28545E+00   -0.11286E-01  2311   0.704E-01    0.250E+01
RMM: 115    -0.122610929283E+04   -0.32755E-01   -0.52051E-02  2413   0.439E-01    0.276E+01
RMM: 116    -0.122609037214E+04    0.18921E-01   -0.46494E-01  2106   0.127E+00    0.296E+01
RMM: 117    -0.122567239335E+04    0.41798E+00   -0.15519E-01  2201   0.790E-01    0.278E+01
RMM: 118    -0.122518323732E+04    0.48916E+00   -0.86961E-02  2473   0.450E-01    0.235E+01
RMM: 119    -0.122513781226E+04    0.45425E-01   -0.13305E-01  2170   0.735E-01    0.201E+01
RMM: 120    -0.122525744615E+04   -0.11963E+00   -0.12184E-01  2248   0.721E-01
   1 F= -.12334004E+04 E0= -.12333757E+04  d E =-.123340E+04  mag=    34.8166
       N       E                     dE             d eps       ncg     rms          rms(c)
DAV:   1    -0.122393831136E+04    0.11995E+01   -0.24553E+02  2172   0.338E+01    0.226E+01
RMM:   2    -0.130901936669E+04   -0.85081E+02   -0.49879E+01  2178   0.163E+01    0.128E+02
RMM:   3    -0.123446546753E+04    0.74554E+02   -0.30209E+01  2171   0.129E+01    0.616E+01
RMM:   4    -0.122383774815E+04    0.10628E+02   -0.62620E+00  2319   0.556E+00    0.272E+01
RMM:   5    -0.122795470977E+04   -0.41170E+01   -0.41181E+00  2272   0.389E+00    0.381E+01
RMM:   6    -0.122508674222E+04    0.28680E+01   -0.27691E+00  2304   0.329E+00    0.251E+01
RMM:   7    -0.122456537743E+04    0.52136E+00   -0.95601E-01  2281   0.199E+00    0.223E+01
RMM:   8    -0.122436133317E+04    0.20404E+00   -0.48633E-01  2281   0.134E+00    0.171E+01
RMM:   9    -0.122454281028E+04   -0.18148E+00   -0.56115E-01  2244   0.149E+00    0.156E+01
RMM:  10    -0.122442609261E+04    0.11672E+00   -0.34264E-01  2274   0.121E+00    0.110E+01
RMM:  11    -0.122450644116E+04   -0.80349E-01   -0.31676E-01  2269   0.110E+00    0.111E+01
RMM:  12    -0.122434726506E+04    0.15918E+00   -0.15848E-01  2328   0.772E-01    0.895E+00
RMM:  13    -0.122431654630E+04    0.30719E-01   -0.20099E-01  2242   0.858E-01    0.949E+00
RMM:  14    -0.122427372351E+04    0.42823E-01   -0.78780E-02  2295   0.562E-01    0.672E+00
RMM:  15    -0.122433875185E+04   -0.65028E-01   -0.81292E-02  2273   0.524E-01    0.837E+00
RMM:  16    -0.122432017571E+04    0.18576E-01   -0.73025E-02  2243   0.519E-01    0.832E+00
RMM:  17    -0.122428491406E+04    0.35262E-01   -0.13902E-01  2371   0.653E-01    0.920E+00
RMM:  18    -0.122407169308E+04    0.21322E+00   -0.24333E-01  2261   0.942E-01    0.866E+00
RMM:  19    -0.122409525754E+04   -0.23564E-01   -0.73512E-02  2230   0.569E-01    0.820E+00
RMM:  20    -0.122414573769E+04   -0.50480E-01   -0.70477E-02  2338   0.512E-01    0.818E+00
RMM:  21    -0.122413641955E+04    0.93181E-02   -0.72854E-02  2326   0.532E-01    0.737E+00
RMM:  22    -0.122424758314E+04   -0.11116E+00   -0.62268E-02  2265   0.475E-01    0.637E+00
RMM:  23    -0.122427214908E+04   -0.24566E-01   -0.45817E-02  2356   0.387E-01    0.478E+00
RMM:  24    -0.122436030890E+04   -0.88160E-01   -0.35959E-02  2326   0.354E-01    0.374E+00
RMM:  25    -0.122443422637E+04   -0.73917E-01   -0.12560E-02  2212   0.238E-01    0.391E+00
RMM:  26    -0.122453381880E+04   -0.99592E-01   -0.26881E-02  2148   0.318E-01    0.397E+00
RMM:  27    -0.122456359108E+04   -0.29772E-01   -0.10902E-02  2260   0.217E-01    0.343E+00
RMM:  28    -0.122471010743E+04   -0.14652E+00   -0.10632E-02  2101   0.177E-01    0.350E+00
RMM:  29    -0.122498865436E+04   -0.27855E+00   -0.43020E-02  2121   0.370E-01    0.390E+00
RMM:  30    -0.122511041218E+04   -0.12176E+00   -0.27949E-02  2312   0.336E-01    0.249E+00
RMM:  31    -0.122520810263E+04   -0.97690E-01   -0.91858E-03  2456   0.148E-01    0.184E+00
RMM:  32    -0.122529051158E+04   -0.82409E-01   -0.86541E-03  2160   0.173E-01    0.209E+00
RMM:  33    -0.122552485496E+04   -0.23434E+00   -0.14725E-02  2113   0.178E-01    0.972E-01
RMM:  34    -0.122580975369E+04   -0.28490E+00   -0.19678E-02  2410   0.186E-01    0.141E+00
RMM:  35    -0.122589305663E+04   -0.83303E-01   -0.66973E-03  2328   0.145E-01    0.664E-01
RMM:  36    -0.122606165531E+04   -0.16860E+00   -0.75324E-03  2289   0.101E-01    0.685E-01
RMM:  37    -0.122622081708E+04   -0.15916E+00   -0.69383E-03  2534   0.959E-02    0.481E-01
RMM:  38    -0.122640471929E+04   -0.18390E+00   -0.96988E-03  2279   0.946E-02    0.415E-01
RMM:  39    -0.122652599625E+04   -0.12128E+00   -0.77892E-03  2572   0.944E-02    0.298E-01
RMM:  40    -0.122660073617E+04   -0.74740E-01   -0.56888E-03  2479   0.703E-02    0.260E-01
RMM:  41    -0.122663980396E+04   -0.39068E-01   -0.35159E-03  2547   0.625E-02    0.205E-01
RMM:  42    -0.122665502536E+04   -0.15221E-01   -0.17002E-03  2543   0.395E-02    0.247E-01
RMM:  43    -0.122666162524E+04   -0.65999E-02   -0.82982E-04  2559   0.310E-02    0.917E-02
RMM:  44    -0.122666442460E+04   -0.27994E-02   -0.35490E-04  2505   0.195E-02    0.703E-02
RMM:  45    -0.122666569752E+04   -0.12729E-02   -0.95283E-05  2245   0.115E-02    0.666E-02
RMM:  46    -0.122666660307E+04   -0.90556E-03   -0.47274E-05  2110   0.748E-03    0.512E-02
RMM:  47    -0.122666762539E+04   -0.10223E-02   -0.38343E-05  2090   0.741E-03    0.263E-02
RMM:  48    -0.122666795724E+04   -0.33185E-03   -0.10744E-05  1716   0.434E-03    0.208E-02
RMM:  49    -0.122666853023E+04   -0.57299E-03   -0.16931E-05  1802   0.415E-03    0.166E-02
RMM:  50    -0.122666885394E+04   -0.32371E-03   -0.96672E-06  1620   0.344E-03    0.135E-02
RMM:  51    -0.122666903516E+04   -0.18122E-03   -0.48806E-06  1486   0.261E-03    0.116E-02
RMM:  52    -0.122666921970E+04   -0.18454E-03   -0.56705E-06  1516   0.263E-03    0.506E-03
RMM:  53    -0.122666929118E+04   -0.71485E-04   -0.24948E-06  1382   0.213E-03    0.440E-03
RMM:  54    -0.122666936351E+04   -0.72325E-04   -0.21061E-06  1322   0.168E-03    0.326E-03
RMM:  55    -0.122666942674E+04   -0.63234E-04   -0.20117E-06  1319   0.161E-03    0.330E-03
RMM:  56    -0.122666946708E+04   -0.40333E-04   -0.18721E-06  1310   0.146E-03    0.213E-03
RMM:  57    -0.122666949219E+04   -0.25109E-04   -0.15407E-06  1275   0.140E-03    0.128E-03
RMM:  58    -0.122666949907E+04   -0.68869E-05   -0.78970E-07  1096   0.117E-03    0.767E-04
RMM:  59    -0.122666950924E+04   -0.10170E-04   -0.66472E-07  1112   0.942E-04    0.744E-04
RMM:  60    -0.122666951497E+04   -0.57304E-05   -0.51127E-07  1056   0.943E-04    0.112E-03
RMM:  61    -0.122666951841E+04   -0.34360E-05   -0.42126E-07  1017   0.775E-04    0.509E-04
RMM:  62    -0.122666952003E+04   -0.16252E-05   -0.27857E-07   948   0.729E-04    0.396E-04
RMM:  63    -0.122666952158E+04   -0.15409E-05   -0.22807E-07   909   0.577E-04    0.383E-04
RMM:  64    -0.122666952272E+04   -0.11423E-05   -0.15953E-07   879   0.576E-04    0.229E-04
RMM:  65    -0.122666952359E+04   -0.87742E-06   -0.12653E-07   820   0.462E-04
   2 F= -.12348102E+04 E0= -.12347958E+04  d E =-.140984E+01  mag=    35.0000
       N       E                     dE             d eps       ncg     rms          rms(c)
DAV:   1    -0.122702707261E+04   -0.35755E+00   -0.11797E+02  2160   0.231E+01    0.447E+00
RMM:   2    -0.122742534341E+04   -0.39827E+00   -0.31960E+00  2357   0.383E+00    0.669E+00
RMM:   3    -0.122777084255E+04   -0.34550E+00   -0.78619E-01  2472   0.188E+00    0.109E+01
RMM:   4    -0.122753238839E+04    0.23845E+00   -0.30505E-01  2533   0.114E+00    0.763E+00
RMM:   5    -0.122738825214E+04    0.14414E+00   -0.10472E-01  2477   0.618E-01    0.302E+00
RMM:   6    -0.122739767531E+04   -0.94232E-02   -0.54855E-02  2417   0.424E-01    0.312E+00
RMM:   7    -0.122738819220E+04    0.94831E-02   -0.26787E-02  2528   0.294E-01    0.189E+00
RMM:   8    -0.122739169675E+04   -0.35045E-02   -0.21813E-02  2431   0.296E-01    0.170E+00
RMM:   9    -0.122739668741E+04   -0.49907E-02   -0.22052E-02  2426   0.284E-01    0.279E+00
RMM:  10    -0.122738400448E+04    0.12683E-01   -0.14740E-02  2389   0.245E-01    0.925E-01
RMM:  11    -0.122738698495E+04   -0.29805E-02   -0.74715E-03  2355   0.187E-01    0.102E+00
RMM:  12    -0.122738663840E+04    0.34655E-03   -0.33230E-03  2337   0.121E-01    0.815E-01
RMM:  13    -0.122738643478E+04    0.20361E-03   -0.17600E-03  2336   0.846E-02    0.410E-01
RMM:  14    -0.122738678594E+04   -0.35116E-03   -0.68131E-04  2310   0.578E-02    0.381E-01
RMM:  15    -0.122738679728E+04   -0.11333E-04   -0.35506E-04  2302   0.381E-02    0.217E-01
RMM:  16    -0.122738688732E+04   -0.90045E-04   -0.24135E-04  2202   0.311E-02    0.236E-01
RMM:  17    -0.122738692001E+04   -0.32686E-04   -0.12019E-04  2172   0.234E-02    0.148E-01
RMM:  18    -0.122738710605E+04   -0.18604E-03   -0.91786E-05  2337   0.186E-02    0.891E-02
RMM:  19    -0.122738729843E+04   -0.19238E-03   -0.62939E-05  2140   0.168E-02    0.140E-01
RMM:  20    -0.122738732242E+04   -0.23994E-04   -0.32515E-05  1878   0.116E-02    0.751E-02
RMM:  21    -0.122738736043E+04   -0.38003E-04   -0.12139E-05  1559   0.755E-03    0.533E-02
RMM:  22    -0.122738742550E+04   -0.65071E-04   -0.10097E-05  1588   0.632E-03    0.379E-02
RMM:  23    -0.122738749092E+04   -0.65425E-04   -0.11642E-05  1559   0.677E-03    0.554E-02
RMM:  24    -0.122738758703E+04   -0.96109E-04   -0.90551E-06  1643   0.604E-03    0.398E-02
RMM:  25    -0.122738767144E+04   -0.84410E-04   -0.48213E-06  1559   0.360E-03    0.157E-02
RMM:  26    -0.122738776916E+04   -0.97722E-04   -0.42255E-06  1533   0.314E-03    0.188E-02
RMM:  27    -0.122738783720E+04   -0.68042E-04   -0.27313E-06  1387   0.275E-03    0.804E-03
RMM:  28    -0.122738788899E+04   -0.51783E-04   -0.20426E-06  1327   0.222E-03    0.372E-03
RMM:  29    -0.122738795203E+04   -0.63040E-04   -0.26651E-06  1412   0.198E-03    0.485E-03
RMM:  30    -0.122738800325E+04   -0.51219E-04   -0.24775E-06  1397   0.188E-03    0.250E-03
RMM:  31    -0.122738804113E+04   -0.37888E-04   -0.20894E-06  1327   0.175E-03    0.200E-03
RMM:  32    -0.122738807116E+04   -0.30026E-04   -0.19333E-06  1313   0.162E-03    0.127E-03
RMM:  33    -0.122738809133E+04   -0.20168E-04   -0.15413E-06  1227   0.151E-03    0.101E-03
RMM:  34    -0.122738810345E+04   -0.12121E-04   -0.11879E-06  1168   0.134E-03    0.106E-03
RMM:  35    -0.122738811112E+04   -0.76758E-05   -0.92586E-07  1137   0.121E-03    0.677E-04
RMM:  36    -0.122738811532E+04   -0.42002E-05   -0.69392E-07  1071   0.106E-03    0.399E-04
RMM:  37    -0.122738811778E+04   -0.24576E-05   -0.51848E-07  1037   0.929E-04    0.486E-04
RMM:  38    -0.122738811887E+04   -0.10913E-05   -0.35736E-07   976   0.796E-04    0.356E-04
RMM:  39    -0.122738811959E+04   -0.71849E-06   -0.25074E-07   908   0.667E-04
   3 F= -.12355303E+04 E0= -.12355163E+04  d E =-.212996E+01  mag=    35.0000
       N       E                     dE             d eps       ncg     rms          rms(c)
DAV:   1    -0.122739653981E+04   -0.84209E-02   -0.12605E+00  2208   0.239E+00    0.484E-01
RMM:   2    -0.122740054039E+04   -0.40006E-02   -0.32330E-02  2433   0.381E-01    0.104E+00
RMM:   3    -0.122740754967E+04   -0.70093E-02   -0.71368E-03  2483   0.181E-01    0.275E+00
RMM:   4    -0.122739845543E+04    0.90942E-02   -0.63098E-03  2387   0.170E-01    0.855E-01
RMM:   5    -0.122739933571E+04   -0.88028E-03   -0.21213E-03  2318   0.102E-01    0.239E-01
RMM:   6    -0.122740010373E+04   -0.76802E-03   -0.51624E-04  2390   0.484E-02    0.260E-01
RMM:   7    -0.122740015519E+04   -0.51461E-04   -0.37800E-04  2363   0.404E-02    0.304E-01
RMM:   8    -0.122740011132E+04    0.43874E-04   -0.28847E-04  2359   0.347E-02    0.206E-01
RMM:   9    -0.122740009436E+04    0.16959E-04   -0.17635E-04  2311   0.276E-02    0.125E-01
RMM:  10    -0.122740010712E+04   -0.12761E-04   -0.69761E-05  2068   0.186E-02    0.108E-01
RMM:  11    -0.122740010896E+04   -0.18388E-05   -0.22076E-05  1732   0.106E-02    0.896E-02
RMM:  12    -0.122740011145E+04   -0.24954E-05   -0.12844E-05  1532   0.749E-03    0.591E-02
RMM:  13    -0.122740012244E+04   -0.10984E-04   -0.74561E-06  1490   0.626E-03    0.190E-02
RMM:  14    -0.122740013688E+04   -0.14443E-04   -0.41101E-06  1439   0.467E-03    0.212E-02
RMM:  15    -0.122740014124E+04   -0.43567E-05   -0.25424E-06  1380   0.377E-03    0.192E-02
RMM:  16    -0.122740014102E+04    0.21152E-06   -0.11818E-06  1295   0.266E-03
   4 F= -.12355425E+04 E0= -.12355285E+04  d E =-.214215E+01  mag=    35.0000
       N       E                     dE             d eps       ncg     rms          rms(c)
DAV:   1    -0.122740093397E+04   -0.79274E-03   -0.31893E-01  2172   0.120E+00    0.242E-01
RMM:   2    -0.122740189468E+04   -0.96071E-03   -0.81805E-03  2435   0.192E-01    0.529E-01
RMM:   3    -0.122740365776E+04   -0.17631E-02   -0.17868E-03  2481   0.901E-02    0.145E+00
RMM:   4    -0.122740119241E+04    0.24654E-02   -0.16754E-03  2363   0.886E-02    0.444E-01
RMM:   5    -0.122740155107E+04   -0.35867E-03   -0.56502E-04  2243   0.528E-02    0.112E-01
RMM:   6    -0.122740182507E+04   -0.27400E-03   -0.14049E-04  2330   0.260E-02    0.131E-01
RMM:   7    -0.122740184595E+04   -0.20881E-04   -0.10150E-04  2276   0.215E-02    0.153E-01
RMM:   8    -0.122740183865E+04    0.73008E-05   -0.73884E-05  2181   0.176E-02    0.114E-01
RMM:   9    -0.122740183192E+04    0.67379E-05   -0.43985E-05  1940   0.140E-02    0.643E-02
RMM:  10    -0.122740184140E+04   -0.94868E-05   -0.19498E-05  1663   0.994E-03    0.531E-02
RMM:  11    -0.122740184347E+04   -0.20684E-05   -0.75717E-06  1484   0.646E-03    0.483E-02
RMM:  12    -0.122740184777E+04   -0.42963E-05   -0.59143E-06  1454   0.545E-03    0.338E-02
RMM:  13    -0.122740185356E+04   -0.57925E-05   -0.37219E-06  1418   0.456E-03    0.157E-02
RMM:  14    -0.122740185768E+04   -0.41187E-05   -0.15026E-06  1321   0.294E-03    0.119E-02
RMM:  15    -0.122740185810E+04   -0.41795E-06   -0.63667E-07  1212   0.192E-03
   5 F= -.12355443E+04 E0= -.12355303E+04  d E =-.214395E+01  mag=    35.0000
       N       E                     dE             d eps       ncg     rms          rms(c)
DAV:   1    -0.122730027023E+04    0.10159E+00   -0.36035E+01  2064   0.135E+01    0.227E+00
RMM:   2    -0.122739584632E+04   -0.95576E-01   -0.97949E-01  2562   0.202E+00    0.145E+00
RMM:   3    -0.122750638885E+04   -0.11054E+00   -0.12651E-01  2475   0.801E-01    0.737E+00
RMM:   4    -0.122739571103E+04    0.11068E+00   -0.57787E-02  2618   0.492E-01    0.198E+00
RMM:   5    -0.122740345818E+04   -0.77471E-02   -0.21692E-02  2383   0.311E-01    0.117E+00
RMM:   6    -0.122740595791E+04   -0.24997E-02   -0.95393E-03  2433   0.189E-01    0.152E+00
RMM:   7    -0.122740128293E+04    0.46750E-02   -0.73001E-03  2468   0.177E-01    0.637E-01
RMM:   8    -0.122740306657E+04   -0.17836E-02   -0.54665E-03  2406   0.153E-01    0.802E-01
RMM:   9    -0.122740225221E+04    0.81436E-03   -0.34962E-03  2286   0.124E-01    0.532E-01
RMM:  10    -0.122740188405E+04    0.36816E-03   -0.11269E-03  2430   0.711E-02    0.297E-01
RMM:  11    -0.122740210508E+04   -0.22103E-03   -0.41673E-04  2330   0.424E-02    0.417E-01
RMM:  12    -0.122740206283E+04    0.42245E-04   -0.23586E-04  2277   0.300E-02    0.321E-01
RMM:  13    -0.122740207260E+04   -0.97648E-05   -0.17963E-04  2146   0.250E-02    0.165E-01
RMM:  14    -0.122740225124E+04   -0.17865E-03   -0.10751E-04  2127   0.219E-02    0.248E-01
RMM:  15    -0.122740224447E+04    0.67782E-05   -0.80634E-05  1991   0.202E-02    0.238E-01
RMM:  16    -0.122740220262E+04    0.41849E-04   -0.27240E-05  1916   0.105E-02    0.587E-02
RMM:  17    -0.122740228796E+04   -0.85339E-04   -0.16673E-05  1735   0.897E-03    0.900E-02
RMM:  18    -0.122740232175E+04   -0.33792E-04   -0.15896E-05  1652   0.901E-03    0.816E-02
RMM:  19    -0.122740236584E+04   -0.44096E-04   -0.12754E-05  1633   0.752E-03    0.315E-02
RMM:  20    -0.122740241871E+04   -0.52870E-04   -0.96248E-06  1600   0.654E-03    0.225E-02
RMM:  21    -0.122740244568E+04   -0.26967E-04   -0.38550E-06  1425   0.418E-03    0.241E-02
RMM:  22    -0.122740246406E+04   -0.18376E-04   -0.23537E-06  1347   0.330E-03    0.244E-02
RMM:  23    -0.122740248136E+04   -0.17304E-04   -0.16952E-06  1317   0.289E-03    0.168E-02
RMM:  24    -0.122740251991E+04   -0.38545E-04   -0.15668E-06  1294   0.231E-03    0.650E-03
RMM:  25    -0.122740254469E+04   -0.24779E-04   -0.10295E-06  1243   0.204E-03    0.487E-03
RMM:  26    -0.122740256415E+04   -0.19459E-04   -0.80228E-07  1229   0.157E-03    0.478E-03
RMM:  27    -0.122740258593E+04   -0.21780E-04   -0.71881E-07  1216   0.140E-03    0.410E-03
RMM:  28    -0.122740260942E+04   -0.23492E-04   -0.74212E-07  1197   0.117E-03    0.223E-03
RMM:  29    -0.122740263392E+04   -0.24503E-04   -0.82635E-07  1179   0.116E-03    0.153E-03
RMM:  30    -0.122740265709E+04   -0.23168E-04   -0.95612E-07  1158   0.115E-03    0.865E-04
RMM:  31    -0.122740267160E+04   -0.14514E-04   -0.78594E-07  1118   0.111E-03    0.670E-04
RMM:  32    -0.122740268397E+04   -0.12368E-04   -0.72160E-07  1091   0.100E-03    0.566E-04
RMM:  33    -0.122740269285E+04   -0.88846E-05   -0.61041E-07  1043   0.985E-04    0.431E-04
RMM:  34    -0.122740269925E+04   -0.63975E-05   -0.52968E-07  1033   0.874E-04    0.345E-04
RMM:  35    -0.122740270419E+04   -0.49372E-05   -0.46049E-07  1041   0.852E-04    0.237E-04
RMM:  36    -0.122740270685E+04   -0.26562E-05   -0.36279E-07   974   0.751E-04    0.199E-04
RMM:  37    -0.122740270812E+04   -0.12708E-05   -0.25939E-07   901   0.671E-04    0.136E-04
RMM:  38    -0.122740270903E+04   -0.91645E-06   -0.19096E-07   850   0.572E-04
   6 F= -.12355457E+04 E0= -.12355316E+04  d E =-.136249E-02  mag=    35.0000
       N       E                     dE             d eps       ncg     rms          rms(c)
DAV:   1    -0.122740945213E+04   -0.67440E-02   -0.87877E+00  2088   0.664E+00    0.110E+00
RMM:   2    -0.122743227113E+04   -0.22819E-01   -0.24074E-01  2555   0.100E+00    0.725E-01
RMM:   3    -0.122746493868E+04   -0.32668E-01   -0.31153E-02  2480   0.398E-01    0.462E+00
RMM:   4    -0.122742697804E+04    0.37961E-01   -0.16610E-02  2570   0.271E-01    0.726E-01
RMM:   5    -0.122743409490E+04   -0.71169E-02   -0.62402E-03  2356   0.179E-01    0.572E-01
RMM:   6    -0.122743473650E+04   -0.64160E-03   -0.22558E-03  2441   0.968E-02    0.697E-01
RMM:   7    -0.122743477183E+04   -0.35327E-04   -0.19655E-03  2405   0.889E-02    0.727E-01
RMM:   8    -0.122743424175E+04    0.53008E-03   -0.15317E-03  2429   0.791E-02    0.419E-01
RMM:   9    -0.122743462684E+04   -0.38509E-03   -0.10217E-03  2305   0.704E-02    0.583E-01
RMM:  10    -0.122743415275E+04    0.47410E-03   -0.44787E-04  2312   0.439E-02    0.408E-01
RMM:  11    -0.122743415274E+04    0.42128E-08   -0.17060E-04  2194   0.269E-02    0.167E-01
RMM:  12    -0.122743425977E+04   -0.10702E-03   -0.11373E-04  2081   0.227E-02    0.870E-02
RMM:  13    -0.122743433206E+04   -0.72291E-04   -0.36682E-05  1993   0.140E-02    0.881E-02
RMM:  14    -0.122743434030E+04   -0.82461E-05   -0.14757E-05  1613   0.837E-03    0.614E-02
RMM:  15    -0.122743434298E+04   -0.26768E-05   -0.59242E-06  1447   0.529E-03    0.334E-02
RMM:  16    -0.122743435207E+04   -0.90871E-05   -0.31139E-06  1391   0.391E-03    0.250E-02
RMM:  17    -0.122743436849E+04   -0.16423E-04   -0.41185E-06  1445   0.409E-03    0.351E-02
RMM:  18    -0.122743438364E+04   -0.15147E-04   -0.51896E-06  1449   0.489E-03    0.343E-02
RMM:  19    -0.122743439160E+04   -0.79662E-05   -0.32998E-06  1394   0.414E-03    0.212E-02
RMM:  20    -0.122743439728E+04   -0.56798E-05   -0.12051E-06  1276   0.255E-03    0.119E-02
RMM:  21    -0.122743440357E+04   -0.62873E-05   -0.73511E-07  1235   0.187E-03    0.706E-03
RMM:  22    -0.122743441209E+04   -0.85180E-05   -0.63970E-07  1229   0.169E-03    0.630E-03
RMM:  23    -0.122743441725E+04   -0.51646E-05   -0.59489E-07  1213   0.172E-03    0.675E-03
RMM:  24    -0.122743442295E+04   -0.56977E-05   -0.36131E-07  1164   0.128E-03    0.460E-03
RMM:  25    -0.122743443019E+04   -0.72396E-05   -0.26447E-07  1134   0.885E-04    0.247E-03
RMM:  26    -0.122743443703E+04   -0.68366E-05   -0.21872E-07  1106   0.767E-04    0.162E-03
RMM:  27    -0.122743444332E+04   -0.62918E-05   -0.19992E-07  1050   0.660E-04    0.141E-03
RMM:  28    -0.122743444907E+04   -0.57501E-05   -0.18869E-07  1007   0.629E-04    0.952E-04
RMM:  29    -0.122743445434E+04   -0.52741E-05   -0.19325E-07   979   0.593E-04    0.623E-04
RMM:  30    -0.122743445842E+04   -0.40826E-05   -0.17947E-07   972   0.587E-04    0.445E-04
RMM:  31    -0.122743446141E+04   -0.29869E-05   -0.16313E-07   941   0.543E-04    0.350E-04
RMM:  32    -0.122743446390E+04   -0.24850E-05   -0.14789E-07   905   0.527E-04    0.447E-04
RMM:  33    -0.122743446573E+04   -0.18374E-05   -0.13615E-07   908   0.504E-04    0.262E-04
RMM:  34    -0.122743446682E+04   -0.10851E-05   -0.11329E-07   870   0.484E-04    0.119E-04
RMM:  35    -0.122743446734E+04   -0.52197E-06   -0.84772E-08   794   0.436E-04
   7 F= -.12355772E+04 E0= -.12355632E+04  d E =-.328653E-01  mag=    35.0000
       N       E                     dE             d eps       ncg     rms          rms(c)
DAV:   1    -0.122740491850E+04    0.29548E-01   -0.18743E+01  2064   0.919E+00    0.171E+00
RMM:   2    -0.122746627637E+04   -0.61358E-01   -0.45736E-01  2564   0.147E+00    0.320E+00
RMM:   3    -0.122755245453E+04   -0.86178E-01   -0.10111E-01  2526   0.657E-01    0.603E+00
RMM:   4    -0.122746360498E+04    0.88850E-01   -0.47363E-02  2491   0.479E-01    0.251E+00
RMM:   5    -0.122746281230E+04    0.79267E-03   -0.11360E-02  2515   0.211E-01    0.145E+00
RMM:   6    -0.122746450065E+04   -0.16884E-02   -0.52237E-03  2447   0.143E-01    0.736E-01
RMM:   7    -0.122746771305E+04   -0.32124E-02   -0.40261E-03  2450   0.128E-01    0.135E+00
RMM:   8    -0.122746532294E+04    0.23901E-02   -0.26928E-03  2432   0.105E-01    0.555E-01
RMM:   9    -0.122746688236E+04   -0.15594E-02   -0.21348E-03  2378   0.931E-02    0.937E-01
RMM:  10    -0.122746688832E+04   -0.59592E-05   -0.17635E-03  2320   0.898E-02    0.105E+00
RMM:  11    -0.122746533835E+04    0.15500E-02   -0.65163E-04  2293   0.541E-02    0.467E-01
RMM:  12    -0.122746586322E+04   -0.52488E-03   -0.39775E-04  2226   0.418E-02    0.276E-01
RMM:  13    -0.122746600871E+04   -0.14548E-03   -0.14012E-04  2269   0.269E-02    0.122E-01
RMM:  14    -0.122746615748E+04   -0.14877E-03   -0.79452E-05  2048   0.204E-02    0.134E-01
RMM:  15    -0.122746618762E+04   -0.30143E-04   -0.39076E-05  1877   0.125E-02    0.736E-02
RMM:  16    -0.122746622776E+04   -0.40140E-04   -0.26003E-05  1667   0.102E-02    0.466E-02
RMM:  17    -0.122746626032E+04   -0.32564E-04   -0.93415E-06  1496   0.675E-03    0.301E-02
RMM:  18    -0.122746628067E+04   -0.20351E-04   -0.53944E-06  1443   0.466E-03    0.468E-02
RMM:  19    -0.122746629578E+04   -0.15106E-04   -0.38255E-06  1401   0.413E-03    0.540E-02
RMM:  20    -0.122746633697E+04   -0.41195E-04   -0.26285E-06  1378   0.319E-03    0.392E-02
RMM:  21    -0.122746638703E+04   -0.50060E-04   -0.25764E-06  1396   0.312E-03    0.201E-02
RMM:  22    -0.122746640614E+04   -0.19110E-04   -0.18050E-06  1318   0.299E-03    0.131E-02
RMM:  23    -0.122746643068E+04   -0.24531E-04   -0.11231E-06  1257   0.230E-03    0.920E-03
RMM:  24    -0.122746646013E+04   -0.29454E-04   -0.93094E-07  1238   0.186E-03    0.479E-03
RMM:  25    -0.122746649474E+04   -0.34613E-04   -0.88678E-07  1236   0.160E-03    0.415E-03
RMM:  26    -0.122746652897E+04   -0.34230E-04   -0.84415E-07  1208   0.140E-03    0.261E-03
RMM:  27    -0.122746655617E+04   -0.27200E-04   -0.77337E-07  1183   0.122E-03    0.307E-03
RMM:  28    -0.122746657558E+04   -0.19404E-04   -0.61841E-07  1138   0.108E-03    0.229E-03
RMM:  29    -0.122746659670E+04   -0.21125E-04   -0.65327E-07  1115   0.998E-04    0.164E-03
RMM:  30    -0.122746661541E+04   -0.18708E-04   -0.63854E-07  1127   0.102E-03    0.130E-03
RMM:  31    -0.122746662981E+04   -0.14399E-04   -0.62041E-07  1108   0.950E-04    0.654E-04
RMM:  32    -0.122746664056E+04   -0.10757E-04   -0.54866E-07  1058   0.930E-04    0.125E-03
RMM:  33    -0.122746664826E+04   -0.76929E-05   -0.48943E-07  1052   0.847E-04    0.601E-04
RMM:  34    -0.122746665350E+04   -0.52399E-05   -0.40232E-07  1003   0.805E-04    0.336E-04
RMM:  35    -0.122746665682E+04   -0.33230E-05   -0.33065E-07   953   0.716E-04    0.369E-04
RMM:  36    -0.122746665854E+04   -0.17206E-05   -0.24147E-07   905   0.657E-04    0.147E-04
RMM:  37    -0.122746665964E+04   -0.11035E-05   -0.18105E-07   863   0.563E-04    0.179E-04
RMM:  38    -0.122746666041E+04   -0.76611E-06   -0.13501E-07   851   0.522E-04
   8 F= -.12356104E+04 E0= -.12355964E+04  d E =-.332216E-01  mag=    35.0000
       N       E                     dE             d eps       ncg     rms          rms(c)
DAV:   1    -0.122746651369E+04    0.14595E-03   -0.37453E-01  2232   0.130E+00    0.242E-01
RMM:   2    -0.122746757625E+04   -0.10626E-02   -0.91039E-03  2565   0.207E-01    0.480E-01
RMM:   3    -0.122747017753E+04   -0.26013E-02   -0.19338E-03  2531   0.900E-02    0.170E+00
RMM:   4    -0.122746647547E+04    0.37021E-02   -0.17821E-03  2360   0.953E-02    0.370E-01
RMM:   5    -0.122746739045E+04   -0.91497E-03   -0.50749E-04  2312   0.529E-02    0.160E-01
RMM:   6    -0.122746766747E+04   -0.27702E-03   -0.16350E-04  2306   0.279E-02    0.143E-01
RMM:   7    -0.122746769437E+04   -0.26900E-04   -0.85513E-05  2279   0.201E-02    0.153E-01
RMM:   8    -0.122746767777E+04    0.16596E-04   -0.56298E-05  2083   0.158E-02    0.104E-01
RMM:   9    -0.122746769920E+04   -0.21428E-04   -0.34687E-05  1970   0.124E-02    0.802E-02
RMM:  10    -0.122746770577E+04   -0.65733E-05   -0.27119E-05  1760   0.113E-02    0.984E-02
RMM:  11    -0.122746770670E+04   -0.92806E-06   -0.11901E-05  1517   0.762E-03    0.901E-02
RMM:  12    -0.122746769868E+04    0.80175E-05   -0.57515E-06  1442   0.569E-03    0.626E-02
RMM:  13    -0.122746770504E+04   -0.63589E-05   -0.30372E-06  1388   0.414E-03    0.260E-02
RMM:  14    -0.122746771347E+04   -0.84325E-05   -0.16639E-06  1321   0.317E-03    0.103E-02
RMM:  15    -0.122746771836E+04   -0.48916E-05   -0.12663E-06  1301   0.275E-03    0.126E-02
RMM:  16    -0.122746771965E+04   -0.12832E-05   -0.50908E-07  1196   0.193E-03    0.888E-03
RMM:  17    -0.122746771995E+04   -0.29974E-06   -0.19823E-07  1168   0.115E-03
   9 F= -.12356113E+04 E0= -.12355973E+04  d E =-.341349E-01  mag=    35.0000
       N       E                     dE             d eps       ncg     rms          rms(c)
DAV:   1    -0.122743983329E+04    0.27886E-01   -0.13416E+01  2064   0.744E+00    0.144E+00
RMM:   2    -0.122747607441E+04   -0.36241E-01   -0.26660E-01  2482   0.115E+00    0.163E+00
RMM:   3    -0.122755246732E+04   -0.76393E-01   -0.69566E-02  2495   0.534E-01    0.575E+00
RMM:   4    -0.122748093407E+04    0.71533E-01   -0.35632E-02  2552   0.380E-01    0.234E+00
RMM:   5    -0.122747927890E+04    0.16552E-02   -0.14603E-02  2358   0.250E-01    0.825E-01
RMM:   6    -0.122748100970E+04   -0.17308E-02   -0.42393E-03  2438   0.130E-01    0.631E-01
RMM:   7    -0.122748094221E+04    0.67489E-04   -0.23192E-03  2490   0.965E-02    0.697E-01
RMM:   8    -0.122748147252E+04   -0.53031E-03   -0.20747E-03  2411   0.904E-02    0.693E-01
RMM:   9    -0.122748105096E+04    0.42156E-03   -0.14887E-03  2410   0.735E-02    0.429E-01
RMM:  10    -0.122748107404E+04   -0.23081E-04   -0.85595E-04  2323   0.614E-02    0.364E-01
RMM:  11    -0.122748105043E+04    0.23612E-04   -0.29271E-04  2314   0.376E-02    0.174E-01
RMM:  12    -0.122748110171E+04   -0.51282E-04   -0.13217E-04  2168   0.230E-02    0.102E-01
RMM:  13    -0.122748119300E+04   -0.91283E-04   -0.52982E-05  1964   0.157E-02    0.544E-02
RMM:  14    -0.122748124018E+04   -0.47183E-04   -0.20839E-05  1679   0.936E-03    0.415E-02
RMM:  15    -0.122748127556E+04   -0.35377E-04   -0.12066E-05  1537   0.701E-03    0.466E-02
RMM:  16    -0.122748130802E+04   -0.32460E-04   -0.86447E-06  1486   0.633E-03    0.258E-02
RMM:  17    -0.122748136543E+04   -0.57415E-04   -0.46560E-06  1483   0.443E-03    0.241E-02
RMM:  18    -0.122748139222E+04   -0.26790E-04   -0.26971E-06  1391   0.362E-03    0.160E-02
RMM:  19    -0.122748140273E+04   -0.10511E-04   -0.15807E-06  1304   0.276E-03    0.142E-02
RMM:  20    -0.122748142103E+04   -0.18298E-04   -0.10573E-06  1259   0.222E-03    0.105E-02
RMM:  21    -0.122748145704E+04   -0.36005E-04   -0.11876E-06  1275   0.208E-03    0.905E-03
RMM:  22    -0.122748148442E+04   -0.27388E-04   -0.11831E-06  1280   0.224E-03    0.128E-02
RMM:  23    -0.122748150248E+04   -0.18059E-04   -0.81362E-07  1235   0.181E-03    0.754E-03
RMM:  24    -0.122748152092E+04   -0.18436E-04   -0.59233E-07  1192   0.139E-03    0.587E-03
RMM:  25    -0.122748153847E+04   -0.17553E-04   -0.47340E-07  1159   0.110E-03    0.324E-03
RMM:  26    -0.122748156025E+04   -0.21783E-04   -0.48657E-07  1136   0.974E-04    0.384E-03
RMM:  27    -0.122748158304E+04   -0.22784E-04   -0.55393E-07  1131   0.951E-04    0.495E-03
RMM:  28    -0.122748159883E+04   -0.15791E-04   -0.49819E-07  1086   0.938E-04    0.128E-03
RMM:  29    -0.122748161811E+04   -0.19285E-04   -0.63019E-07  1095   0.920E-04    0.411E-03
RMM:  30    -0.122748163151E+04   -0.13400E-04   -0.56537E-07  1099   0.947E-04    0.202E-03
RMM:  31    -0.122748164132E+04   -0.98073E-05   -0.52567E-07  1026   0.848E-04    0.501E-04
RMM:  32    -0.122748164815E+04   -0.68283E-05   -0.44855E-07  1016   0.844E-04    0.101E-03
RMM:  33    -0.122748165323E+04   -0.50811E-05   -0.40938E-07   994   0.759E-04    0.422E-04
RMM:  34    -0.122748165695E+04   -0.37177E-05   -0.36133E-07  1004   0.760E-04    0.323E-04
RMM:  35    -0.122748165882E+04   -0.18693E-05   -0.29278E-07   947   0.672E-04    0.381E-04
RMM:  36    -0.122748165964E+04   -0.81672E-06   -0.21412E-07   902   0.618E-04
  10 F= -.12356259E+04 E0= -.12356117E+04  d E =-.145144E-01  mag=    35.0000
       N       E                     dE             d eps       ncg     rms          rms(c)
DAV:   1    -0.122748102933E+04    0.62949E-03   -0.76582E-01  2220   0.178E+00    0.345E-01
RMM:   2    -0.122748283599E+04   -0.18067E-02   -0.15110E-02  2481   0.274E-01    0.389E-01
RMM:   3    -0.122748932264E+04   -0.64867E-02   -0.38270E-03  2489   0.124E-01    0.251E+00
RMM:   4    -0.122748109848E+04    0.82242E-02   -0.33369E-03  2412   0.122E-01    0.460E-01
RMM:   5    -0.122748299970E+04   -0.19012E-02   -0.14132E-03  2230   0.865E-02    0.153E-01
RMM:   6    -0.122748331221E+04   -0.31251E-03   -0.28528E-04  2400   0.356E-02    0.199E-01
RMM:   7    -0.122748328278E+04    0.29425E-04   -0.15842E-04  2319   0.268E-02    0.150E-01
RMM:   8    -0.122748331483E+04   -0.32045E-04   -0.10446E-04  2279   0.212E-02    0.116E-01
RMM:   9    -0.122748335717E+04   -0.42348E-04   -0.80679E-05  2137   0.175E-02    0.145E-01
RMM:  10    -0.122748333099E+04    0.26181E-04   -0.50053E-05  1934   0.148E-02    0.103E-01
RMM:  11    -0.122748333827E+04   -0.72772E-05   -0.17817E-05  1619   0.925E-03    0.937E-02
RMM:  12    -0.122748334054E+04   -0.22693E-05   -0.81239E-06  1472   0.652E-03    0.590E-02
RMM:  13    -0.122748335013E+04   -0.95864E-05   -0.39102E-06  1423   0.463E-03    0.164E-02
RMM:  14    -0.122748336310E+04   -0.12972E-04   -0.25144E-06  1377   0.382E-03    0.195E-02
RMM:  15    -0.122748336578E+04   -0.26841E-05   -0.15032E-06  1322   0.302E-03    0.146E-02
RMM:  16    -0.122748336884E+04   -0.30600E-05   -0.49542E-07  1213   0.183E-03    0.665E-03
RMM:  17    -0.122748337171E+04   -0.28620E-05   -0.26355E-07  1167   0.123E-03    0.428E-03
RMM:  18    -0.122748337491E+04   -0.32083E-05   -0.22093E-07  1113   0.101E-03    0.518E-03
RMM:  19    -0.122748337789E+04   -0.29776E-05   -0.23365E-07  1083   0.106E-03    0.553E-03
RMM:  20    -0.122748338179E+04   -0.38960E-05   -0.17656E-07  1104   0.894E-04    0.369E-03
RMM:  21    -0.122748338363E+04   -0.18417E-05   -0.10487E-07  1006   0.666E-04    0.257E-03
RMM:  22    -0.122748338421E+04   -0.58559E-06   -0.62916E-08   806   0.550E-04
  11 F= -.12356274E+04 E0= -.12356133E+04  d E =-.161003E-01  mag=    35.0000
       N       E                     dE             d eps       ncg     rms          rms(c)
DAV:   1    -0.122746842787E+04    0.14956E-01   -0.87940E+00  2064   0.581E+00    0.118E+00
RMM:   2    -0.122749052931E+04   -0.22101E-01   -0.14054E-01  2431   0.844E-01    0.149E+00
RMM:   3    -0.122755432112E+04   -0.63792E-01   -0.44603E-02  2465   0.419E-01    0.554E+00
RMM:   4    -0.122748884076E+04    0.65480E-01   -0.26502E-02  2473   0.334E-01    0.155E+00
RMM:   5    -0.122749306701E+04   -0.42262E-02   -0.81621E-03  2335   0.191E-01    0.646E-01
RMM:   6    -0.122749439902E+04   -0.13320E-02   -0.21819E-03  2439   0.918E-02    0.510E-01
RMM:   7    -0.122749472646E+04   -0.32744E-03   -0.15129E-03  2395   0.815E-02    0.703E-01
RMM:   8    -0.122749497083E+04   -0.24437E-03   -0.12342E-03  2418   0.668E-02    0.565E-01
RMM:   9    -0.122749469087E+04    0.27997E-03   -0.88455E-04  2351   0.604E-02    0.300E-01
RMM:  10    -0.122749490795E+04   -0.21708E-03   -0.34454E-04  2347   0.393E-02    0.302E-01
RMM:  11    -0.122749483052E+04    0.77422E-04   -0.11894E-04  2183   0.229E-02    0.102E-01
RMM:  12    -0.122749494945E+04   -0.11892E-03   -0.56802E-05  1981   0.152E-02    0.956E-02
RMM:  13    -0.122749498001E+04   -0.30568E-04   -0.35251E-05  1832   0.129E-02    0.740E-02
RMM:  14    -0.122749500533E+04   -0.25320E-04   -0.13546E-05  1594   0.772E-03    0.347E-02
RMM:  15    -0.122749502905E+04   -0.23721E-04   -0.93176E-06  1486   0.662E-03    0.343E-02
RMM:  16    -0.122749503505E+04   -0.59924E-05   -0.55957E-06  1442   0.523E-03    0.256E-02
RMM:  17    -0.122749504037E+04   -0.53295E-05   -0.25134E-06  1382   0.352E-03    0.217E-02
RMM:  18    -0.122749504883E+04   -0.84594E-05   -0.16991E-06  1335   0.280E-03    0.301E-02
RMM:  19    -0.122749505800E+04   -0.91664E-05   -0.19049E-06  1337   0.287E-03    0.271E-02
RMM:  20    -0.122749506889E+04   -0.10891E-04   -0.13891E-06  1312   0.260E-03    0.141E-02
RMM:  21    -0.122749507762E+04   -0.87282E-05   -0.69145E-07  1236   0.176E-03    0.825E-03
RMM:  22    -0.122749508280E+04   -0.51837E-05   -0.56962E-07  1219   0.164E-03    0.759E-03
RMM:  23    -0.122749508712E+04   -0.43207E-05   -0.47274E-07  1175   0.146E-03    0.512E-03
RMM:  24    -0.122749509254E+04   -0.54126E-05   -0.34032E-07  1161   0.117E-03    0.385E-03
RMM:  25    -0.122749509935E+04   -0.68151E-05   -0.27429E-07  1108   0.857E-04    0.189E-03
RMM:  26    -0.122749510554E+04   -0.61919E-05   -0.23070E-07  1072   0.745E-04    0.152E-03
RMM:  27    -0.122749510996E+04   -0.44118E-05   -0.18813E-07   961   0.623E-04    0.179E-03
RMM:  28    -0.122749511337E+04   -0.34161E-05   -0.15540E-07   927   0.560E-04    0.800E-04
RMM:  29    -0.122749511735E+04   -0.39772E-05   -0.15862E-07   922   0.526E-04    0.101E-03
RMM:  30    -0.122749512007E+04   -0.27238E-05   -0.13553E-07   914   0.523E-04    0.560E-04
RMM:  31    -0.122749512213E+04   -0.20540E-05   -0.11580E-07   851   0.466E-04    0.514E-04
RMM:  32    -0.122749512367E+04   -0.15398E-05   -0.94186E-08   836   0.455E-04    0.466E-04
RMM:  33    -0.122749512523E+04   -0.15643E-05   -0.87547E-08   805   0.418E-04    0.155E-04
RMM:  34    -0.122749512652E+04   -0.12865E-05   -0.81380E-08   844   0.429E-04    0.294E-04
RMM:  35    -0.122749512727E+04   -0.75355E-06   -0.65787E-08   758   0.395E-04
  12 F= -.12356391E+04 E0= -.12356250E+04  d E =-.117041E-01  mag=    35.0000
       N       E                     dE             d eps       ncg     rms          rms(c)
DAV:   1    -0.122749512363E+04    0.28824E-05   -0.20242E-03  2220   0.881E-02    0.179E-02
RMM:   2    -0.122749512327E+04    0.36931E-06   -0.32065E-05  2335   0.128E-02    0.194E-02
RMM:   3    -0.122749514472E+04   -0.21455E-04   -0.89492E-06  1534   0.632E-03    0.133E-01
RMM:   4    -0.122749511071E+04    0.34010E-04   -0.87539E-06  1451   0.677E-03    0.255E-02
RMM:   5    -0.122749512563E+04   -0.14917E-04   -0.35952E-06  1358   0.463E-03    0.687E-03
RMM:   6    -0.122749512906E+04   -0.34296E-05   -0.74116E-07  1209   0.213E-03    0.110E-02
RMM:   7    -0.122749512937E+04   -0.31380E-06   -0.54737E-07  1183   0.207E-03
  13 F= -.12356391E+04 E0= -.12356250E+04  d E =-.117068E-01  mag=    35.0000
       N       E                     dE             d eps       ncg     rms          rms(c)
DAV:   1    -0.122747842891E+04    0.16700E-01   -0.74981E+00  2064   0.530E+00    0.111E+00
RMM:   2    -0.122750152648E+04   -0.23098E-01   -0.12277E-01  2419   0.782E-01    0.257E+00
RMM:   3    -0.122753585245E+04   -0.34326E-01   -0.35936E-02  2477   0.386E-01    0.497E+00
RMM:   4    -0.122749731584E+04    0.38537E-01   -0.24340E-02  2419   0.338E-01    0.168E+00
RMM:   5    -0.122749883923E+04   -0.15234E-02   -0.69752E-03  2326   0.181E-01    0.762E-01
RMM:   6    -0.122750056928E+04   -0.17301E-02   -0.24095E-03  2413   0.980E-02    0.653E-01
RMM:   7    -0.122750068433E+04   -0.11506E-03   -0.19752E-03  2377   0.946E-02    0.750E-01
RMM:   8    -0.122750090662E+04   -0.22229E-03   -0.13596E-03  2379   0.738E-02    0.566E-01
RMM:   9    -0.122750063225E+04    0.27437E-03   -0.91082E-04  2337   0.587E-02    0.317E-01
RMM:  10    -0.122750081756E+04   -0.18531E-03   -0.46528E-04  2272   0.444E-02    0.318E-01
RMM:  11    -0.122750073365E+04    0.83916E-04   -0.19037E-04  2194   0.298E-02    0.179E-01
RMM:  12    -0.122750074815E+04   -0.14506E-04   -0.73656E-05  1973   0.179E-02    0.806E-02
RMM:  13    -0.122750080425E+04   -0.56100E-04   -0.22200E-05  1833   0.994E-03    0.503E-02
RMM:  14    -0.122750083352E+04   -0.29264E-04   -0.17404E-05  1654   0.884E-03    0.654E-02
RMM:  15    -0.122750084819E+04   -0.14675E-04   -0.11451E-05  1547   0.739E-03    0.235E-02
RMM:  16    -0.122750087075E+04   -0.22561E-04   -0.48386E-06  1451   0.497E-03    0.216E-02
RMM:  17    -0.122750087665E+04   -0.58963E-05   -0.29475E-06  1387   0.373E-03    0.222E-02
RMM:  18    -0.122750088003E+04   -0.33841E-05   -0.17515E-06  1333   0.300E-03    0.247E-02
RMM:  19    -0.122750088983E+04   -0.98005E-05   -0.12572E-06  1289   0.240E-03    0.251E-02
RMM:  20    -0.122750090520E+04   -0.15369E-04   -0.13504E-06  1304   0.243E-03    0.143E-02
RMM:  21    -0.122750091459E+04   -0.93871E-05   -0.12646E-06  1303   0.248E-03    0.104E-02
RMM:  22    -0.122750092325E+04   -0.86626E-05   -0.67310E-07  1230   0.181E-03    0.599E-03
RMM:  23    -0.122750093042E+04   -0.71660E-05   -0.47896E-07  1175   0.142E-03    0.547E-03
RMM:  24    -0.122750093907E+04   -0.86540E-05   -0.41576E-07  1156   0.120E-03    0.644E-03
RMM:  25    -0.122750094927E+04   -0.10198E-04   -0.37078E-07  1147   0.976E-04    0.396E-03
RMM:  26    -0.122750095847E+04   -0.91969E-05   -0.34489E-07  1106   0.849E-04    0.164E-03
RMM:  27    -0.122750096440E+04   -0.59286E-05   -0.27558E-07  1048   0.769E-04    0.249E-03
RMM:  28    -0.122750096922E+04   -0.48244E-05   -0.23728E-07  1018   0.665E-04    0.716E-04
RMM:  29    -0.122750097451E+04   -0.52940E-05   -0.24288E-07  1009   0.651E-04    0.123E-03
RMM:  30    -0.122750097880E+04   -0.42809E-05   -0.23602E-07   986   0.630E-04    0.723E-04
RMM:  31    -0.122750098159E+04   -0.27909E-05   -0.20066E-07   983   0.605E-04    0.695E-04
RMM:  32    -0.122750098341E+04   -0.18250E-05   -0.16396E-07   930   0.549E-04    0.760E-04
RMM:  33    -0.122750098495E+04   -0.15401E-05   -0.14031E-07   885   0.512E-04    0.183E-04
RMM:  34    -0.122750098593E+04   -0.98204E-06   -0.11563E-07   875   0.485E-04
  14 F= -.12356447E+04 E0= -.12356305E+04  d E =-.550716E-02  mag=    35.0000
       N       E                     dE             d eps       ncg     rms          rms(c)
DAV:   1    -0.122750012459E+04    0.86036E-03   -0.55771E-01  2184   0.145E+00    0.304E-01
RMM:   2    -0.122750163755E+04   -0.15130E-02   -0.91534E-03  2422   0.213E-01    0.702E-01
RMM:   3    -0.122750493774E+04   -0.33002E-02   -0.26276E-03  2467   0.104E-01    0.196E+00
RMM:   4    -0.122750035892E+04    0.45788E-02   -0.26284E-03  2345   0.113E-01    0.486E-01
RMM:   5    -0.122750135869E+04   -0.99978E-03   -0.80589E-04  2211   0.658E-02    0.148E-01
RMM:   6    -0.122750174518E+04   -0.38648E-03   -0.23951E-04  2318   0.335E-02    0.203E-01
RMM:   7    -0.122750173393E+04    0.11246E-04   -0.15061E-04  2327   0.270E-02    0.169E-01
RMM:   8    -0.122750177344E+04   -0.39508E-04   -0.11662E-04  2166   0.216E-02    0.168E-01
RMM:   9    -0.122750176261E+04    0.10825E-04   -0.73863E-05  1984   0.168E-02    0.915E-02
RMM:  10    -0.122750176512E+04   -0.25073E-05   -0.32085E-05  1759   0.121E-02    0.507E-02
RMM:  11    -0.122750177670E+04   -0.11579E-04   -0.12258E-05  1523   0.766E-03    0.605E-02
RMM:  12    -0.122750177559E+04    0.11053E-05   -0.52347E-06  1440   0.554E-03    0.435E-02
RMM:  13    -0.122750177894E+04   -0.33429E-05   -0.23445E-06  1378   0.359E-03    0.157E-02
RMM:  14    -0.122750178561E+04   -0.66719E-05   -0.18587E-06  1349   0.313E-03    0.175E-02
RMM:  15    -0.122750178700E+04   -0.13872E-05   -0.97561E-07  1273   0.243E-03    0.144E-02
RMM:  16    -0.122750178738E+04   -0.38192E-06   -0.29351E-07  1169   0.129E-03
  15 F= -.12356455E+04 E0= -.12356314E+04  d E =-.640495E-02  mag=    35.0000
       N       E                     dE             d eps       ncg     rms          rms(c)
DAV:   1    -0.122749796588E+04    0.38211E-02   -0.29971E+00  2064   0.338E+00    0.705E-01
RMM:   2    -0.122750731616E+04   -0.93503E-02   -0.51802E-02  2424   0.498E-01    0.175E+00
RMM:   3    -0.122752017164E+04   -0.12855E-01   -0.13817E-02  2467   0.245E-01    0.361E+00
RMM:   4    -0.122750420068E+04    0.15971E-01   -0.11604E-02  2387   0.238E-01    0.114E+00
RMM:   5    -0.122750573818E+04   -0.15375E-02   -0.36315E-03  2290   0.135E-01    0.415E-01
RMM:   6    -0.122750684401E+04   -0.11058E-02   -0.12134E-03  2400   0.714E-02    0.474E-01
RMM:   7    -0.122750663582E+04    0.20820E-03   -0.89238E-04  2380   0.644E-02    0.399E-01
RMM:   8    -0.122750690397E+04   -0.26816E-03   -0.61886E-04  2338   0.502E-02    0.367E-01
RMM:   9    -0.122750673442E+04    0.16955E-03   -0.36281E-04  2297   0.376E-02    0.204E-01
RMM:  10    -0.122750678964E+04   -0.55214E-04   -0.16730E-04  2123   0.267E-02    0.154E-01
RMM:  11    -0.122750679205E+04   -0.24110E-05   -0.70992E-05  1951   0.173E-02    0.115E-01
RMM:  12    -0.122750679208E+04   -0.35579E-07   -0.25697E-05  1663   0.110E-02    0.497E-02
RMM:  13    -0.122750681052E+04   -0.18435E-04   -0.79371E-06  1493   0.612E-03    0.260E-02
RMM:  14    -0.122750682027E+04   -0.97509E-05   -0.47257E-06  1429   0.482E-03    0.257E-02
RMM:  15    -0.122750682593E+04   -0.56601E-05   -0.33396E-06  1394   0.411E-03    0.159E-02
RMM:  16    -0.122750683897E+04   -0.13040E-04   -0.21868E-06  1359   0.328E-03    0.184E-02
RMM:  17    -0.122750684413E+04   -0.51589E-05   -0.16860E-06  1335   0.300E-03    0.155E-02
RMM:  18    -0.122750684526E+04   -0.11349E-05   -0.98728E-07  1280   0.236E-03    0.127E-02
RMM:  19    -0.122750684740E+04   -0.21358E-05   -0.46080E-07  1192   0.153E-03    0.121E-02
RMM:  20    -0.122750685210E+04   -0.46994E-05   -0.44977E-07  1178   0.141E-03    0.651E-03
RMM:  21    -0.122750685792E+04   -0.58255E-05   -0.43527E-07  1184   0.142E-03    0.594E-03
RMM:  22    -0.122750686090E+04   -0.29805E-05   -0.33891E-07  1103   0.124E-03    0.505E-03
RMM:  23    -0.122750686420E+04   -0.32932E-05   -0.21054E-07  1078   0.950E-04    0.295E-03
RMM:  24    -0.122750686816E+04   -0.39692E-05   -0.15952E-07  1055   0.687E-04    0.350E-03
RMM:  25    -0.122750687204E+04   -0.38743E-05   -0.14330E-07   977   0.596E-04    0.180E-03
RMM:  26    -0.122750687551E+04   -0.34677E-05   -0.13001E-07   950   0.535E-04    0.932E-04
RMM:  27    -0.122750687831E+04   -0.28078E-05   -0.12043E-07   940   0.506E-04    0.123E-03
RMM:  28    -0.122750688060E+04   -0.22822E-05   -0.10575E-07   888   0.470E-04    0.389E-04
RMM:  29    -0.122750688300E+04   -0.23989E-05   -0.11163E-07   906   0.462E-04    0.472E-04
RMM:  30    -0.122750688485E+04   -0.18516E-05   -0.10233E-07   888   0.457E-04    0.253E-04
RMM:  31    -0.122750688614E+04   -0.12898E-05   -0.89541E-08   829   0.433E-04    0.613E-04
RMM:  32    -0.122750688709E+04   -0.95176E-06   -0.78461E-08   830   0.418E-04
  16 F= -.12356503E+04 E0= -.12356361E+04  d E =-.471215E-02  mag=    35.0000
       N       E                     dE             d eps       ncg     rms          rms(c)
DAV:   1    -0.122750685780E+04    0.28336E-04   -0.81642E-03  2220   0.177E-01    0.368E-02
RMM:   2    -0.122750686892E+04   -0.11116E-04   -0.14204E-04  2433   0.260E-02    0.891E-02
RMM:   3    -0.122750691187E+04   -0.42947E-04   -0.36583E-05  2043   0.126E-02    0.229E-01
RMM:   4    -0.122750683914E+04    0.72727E-04   -0.37553E-05  1817   0.139E-02    0.599E-02
RMM:   5    -0.122750686807E+04   -0.28933E-04   -0.11720E-05  1494   0.834E-03    0.189E-02
RMM:   6    -0.122750687954E+04   -0.11467E-04   -0.37200E-06  1395   0.455E-03    0.272E-02
RMM:   7    -0.122750688033E+04   -0.79170E-06   -0.27838E-06  1377   0.436E-03
  17 F= -.12356503E+04 E0= -.12356362E+04  d E =-.472569E-02  mag=    35.0000
       N       E                     dE             d eps       ncg     rms          rms(c)
DAV:   1    -0.122750833192E+04   -0.14524E-02   -0.10522E+00  2088   0.209E+00    0.378E-01
RMM:   2    -0.122751187760E+04   -0.35457E-02   -0.18475E-02  2435   0.300E-01    0.122E+00
RMM:   3    -0.122751361999E+04   -0.17424E-02   -0.43268E-03  2461   0.140E-01    0.184E+00
RMM:   4    -0.122751121132E+04    0.24087E-02   -0.41305E-03  2390   0.141E-01    0.781E-01
RMM:   5    -0.122751095563E+04    0.25569E-03   -0.14478E-03  2280   0.839E-02    0.194E-01
RMM:   6    -0.122751122550E+04   -0.26987E-03   -0.30465E-04  2355   0.362E-02    0.164E-01
RMM:   7    -0.122751127312E+04   -0.47618E-04   -0.14300E-04  2404   0.249E-02    0.128E-01
RMM:   8    -0.122751134695E+04   -0.73832E-04   -0.12722E-04  2193   0.217E-02    0.191E-01
RMM:   9    -0.122751133290E+04    0.14050E-04   -0.96889E-05  2222   0.200E-02    0.842E-02
RMM:  10    -0.122751135161E+04   -0.18710E-04   -0.38986E-05  1876   0.136E-02    0.550E-02
RMM:  11    -0.122751136064E+04   -0.90309E-05   -0.14974E-05  1554   0.826E-03    0.498E-02
RMM:  12    -0.122751136624E+04   -0.55998E-05   -0.61834E-06  1465   0.585E-03    0.283E-02
RMM:  13    -0.122751137077E+04   -0.45231E-05   -0.25468E-06  1387   0.366E-03    0.157E-02
RMM:  14    -0.122751137417E+04   -0.34059E-05   -0.12616E-06  1319   0.265E-03    0.110E-02
RMM:  15    -0.122751137610E+04   -0.19292E-05   -0.71387E-07  1239   0.200E-03    0.762E-03
RMM:  16    -0.122751137830E+04   -0.21947E-05   -0.46014E-07  1215   0.157E-03    0.515E-03
RMM:  17    -0.122751138096E+04   -0.26671E-05   -0.39297E-07  1203   0.139E-03    0.650E-03
RMM:  18    -0.122751138192E+04   -0.95726E-06   -0.32693E-07  1133   0.130E-03
  18 F= -.12356544E+04 E0= -.12356403E+04  d E =-.416982E-02  mag=    35.0000
       N       E                     dE             d eps       ncg     rms          rms(c)
DAV:   1    -0.122750447433E+04    0.69066E-02   -0.36437E+00  2064   0.389E+00    0.700E-01
RMM:   2    -0.122751547808E+04   -0.11004E-01   -0.63518E-02  2438   0.555E-01    0.180E+00
RMM:   3    -0.122752807884E+04   -0.12601E-01   -0.15301E-02  2462   0.263E-01    0.361E+00
RMM:   4    -0.122751328405E+04    0.14795E-01   -0.13174E-02  2417   0.252E-01    0.126E+00
RMM:   5    -0.122751391343E+04   -0.62938E-03   -0.44835E-03  2301   0.149E-01    0.385E-01
RMM:   6    -0.122751466561E+04   -0.75219E-03   -0.10139E-03  2428   0.645E-02    0.334E-01
RMM:   7    -0.122751473292E+04   -0.67305E-04   -0.49869E-04  2431   0.470E-02    0.245E-01
RMM:   8    -0.122751507962E+04   -0.34670E-03   -0.48392E-04  2329   0.427E-02    0.392E-01
RMM:   9    -0.122751489247E+04    0.18715E-03   -0.33720E-04  2361   0.356E-02    0.156E-01
RMM:  10    -0.122751497367E+04   -0.81200E-04   -0.14611E-04  2197   0.253E-02    0.132E-01
RMM:  11    -0.122751498373E+04   -0.10063E-04   -0.65537E-05  1974   0.166E-02    0.108E-01
RMM:  12    -0.122751499795E+04   -0.14215E-04   -0.21255E-05  1627   0.101E-02    0.439E-02
RMM:  13    -0.122751502016E+04   -0.22207E-04   -0.77285E-06  1497   0.594E-03    0.288E-02
RMM:  14    -0.122751502890E+04   -0.87445E-05   -0.44614E-06  1425   0.477E-03    0.242E-02
RMM:  15    -0.122751503439E+04   -0.54919E-05   -0.21034E-06  1362   0.327E-03    0.133E-02
RMM:  16    -0.122751504302E+04   -0.86268E-05   -0.19027E-06  1341   0.302E-03    0.151E-02
RMM:  17    -0.122751505229E+04   -0.92718E-05   -0.15424E-06  1320   0.280E-03    0.130E-02
RMM:  18    -0.122751505573E+04   -0.34435E-05   -0.10239E-06  1275   0.233E-03    0.107E-02
RMM:  19    -0.122751505708E+04   -0.13495E-05   -0.53156E-07  1212   0.171E-03    0.866E-03
RMM:  20    -0.122751505911E+04   -0.20317E-05   -0.28493E-07  1113   0.114E-03    0.619E-03
RMM:  21    -0.122751506280E+04   -0.36846E-05   -0.29273E-07  1103   0.110E-03    0.589E-03
RMM:  22    -0.122751506612E+04   -0.33220E-05   -0.28291E-07  1102   0.113E-03    0.379E-03
RMM:  23    -0.122751507031E+04   -0.41876E-05   -0.17564E-07  1092   0.826E-04    0.216E-03
RMM:  24    -0.122751507376E+04   -0.34463E-05   -0.13135E-07  1053   0.639E-04    0.299E-03
RMM:  25    -0.122751507653E+04   -0.27734E-05   -0.10419E-07   908   0.544E-04    0.245E-03
RMM:  26    -0.122751507941E+04   -0.28812E-05   -0.92313E-08   894   0.485E-04    0.590E-04
RMM:  27    -0.122751508259E+04   -0.31810E-05   -0.95951E-08   882   0.464E-04    0.104E-03
RMM:  28    -0.122751508444E+04   -0.18441E-05   -0.76121E-08   823   0.438E-04    0.402E-04
RMM:  29    -0.122751508617E+04   -0.17370E-05   -0.70241E-08   799   0.401E-04    0.424E-04
RMM:  30    -0.122751508753E+04   -0.13578E-05   -0.62026E-08   801   0.405E-04    0.180E-04
RMM:  31    -0.122751508857E+04   -0.10407E-05   -0.53476E-08   745   0.374E-04    0.361E-04
RMM:  32    -0.122751508933E+04   -0.76237E-06   -0.44224E-08   721   0.370E-04
  19 F= -.12356575E+04 E0= -.12356434E+04  d E =-.725982E-02  mag=    35.0000
       N       E                     dE             d eps       ncg     rms          rms(c)
DAV:   1    -0.122751572216E+04   -0.63359E-03   -0.15327E+00  2064   0.264E+00    0.404E-01
RMM:   2    -0.122752029438E+04   -0.45722E-02   -0.29217E-02  2436   0.366E-01    0.124E+00
RMM:   3    -0.122752261221E+04   -0.23178E-02   -0.53864E-03  2442   0.165E-01    0.198E+00
RMM:   4    -0.122751893292E+04    0.36793E-02   -0.43636E-03  2423   0.150E-01    0.617E-01
RMM:   5    -0.122751941793E+04   -0.48501E-03   -0.11948E-03  2330   0.789E-02    0.196E-01
RMM:   6    -0.122751977679E+04   -0.35885E-03   -0.30693E-04  2394   0.353E-02    0.223E-01
RMM:   7    -0.122751977004E+04    0.67441E-05   -0.19172E-04  2384   0.286E-02    0.155E-01
RMM:   8    -0.122751986270E+04   -0.92658E-04   -0.17471E-04  2312   0.268E-02    0.158E-01
RMM:   9    -0.122751990416E+04   -0.41461E-04   -0.13458E-04  2263   0.224E-02    0.162E-01
RMM:  10    -0.122751988191E+04    0.22252E-04   -0.69012E-05  1987   0.168E-02    0.993E-02
RMM:  11    -0.122751988000E+04    0.19053E-05   -0.27266E-05  1722   0.111E-02    0.878E-02
RMM:  12    -0.122751988618E+04   -0.61752E-05   -0.71495E-06  1479   0.632E-03    0.428E-02
RMM:  13    -0.122751989810E+04   -0.11921E-04   -0.35853E-06  1410   0.421E-03    0.228E-02
RMM:  14    -0.122751990516E+04   -0.70657E-05   -0.25690E-06  1369   0.373E-03    0.145E-02
RMM:  15    -0.122751991138E+04   -0.62196E-05   -0.12666E-06  1291   0.269E-03    0.825E-03
RMM:  16    -0.122751991492E+04   -0.35359E-05   -0.88306E-07  1264   0.224E-03    0.838E-03
RMM:  17    -0.122751991602E+04   -0.11009E-05   -0.47656E-07  1204   0.169E-03    0.679E-03
RMM:  18    -0.122751991640E+04   -0.37619E-06   -0.25461E-07  1105   0.114E-03
  20 F= -.12356620E+04 E0= -.12356478E+04  d E =-.441627E-02  mag=    35.0000
       N       E                     dE             d eps       ncg     rms          rms(c)
DAV:   1    -0.122751346970E+04    0.64463E-02   -0.34971E+00  2064   0.398E+00    0.609E-01
RMM:   2    -0.122752366681E+04   -0.10197E-01   -0.66700E-02  2444   0.552E-01    0.171E+00
RMM:   3    -0.122753104263E+04   -0.73758E-02   -0.12391E-02  2441   0.249E-01    0.305E+00
RMM:   4    -0.122752111334E+04    0.99293E-02   -0.98830E-03  2429   0.223E-01    0.962E-01
RMM:   5    -0.122752207853E+04   -0.96519E-03   -0.28096E-03  2332   0.120E-01    0.317E-01
RMM:   6    -0.122752280057E+04   -0.72204E-03   -0.71718E-04  2437   0.539E-02    0.331E-01
RMM:   7    -0.122752279336E+04    0.72107E-05   -0.43281E-04  2413   0.430E-02    0.236E-01
RMM:   8    -0.122752299184E+04   -0.19848E-03   -0.40790E-04  2353   0.406E-02    0.267E-01
RMM:   9    -0.122752302940E+04   -0.37565E-04   -0.32043E-04  2350   0.343E-02    0.235E-01
RMM:  10    -0.122752299904E+04    0.30367E-04   -0.16373E-04  2223   0.259E-02    0.157E-01
RMM:  11    -0.122752299111E+04    0.79296E-05   -0.67991E-05  1963   0.175E-02    0.138E-01
RMM:  12    -0.122752300020E+04   -0.90949E-05   -0.17755E-05  1611   0.950E-03    0.600E-02
RMM:  13    -0.122752302789E+04   -0.27691E-04   -0.89723E-06  1503   0.642E-03    0.349E-02
RMM:  14    -0.122752304196E+04   -0.14071E-04   -0.61436E-06  1451   0.573E-03    0.262E-02
RMM:  15    -0.122752305440E+04   -0.12432E-04   -0.29795E-06  1390   0.401E-03    0.129E-02
RMM:  16    -0.122752306226E+04   -0.78691E-05   -0.19965E-06  1342   0.328E-03    0.127E-02
RMM:  17    -0.122752306522E+04   -0.29535E-05   -0.97599E-07  1269   0.238E-03    0.952E-03
RMM:  18    -0.122752306638E+04   -0.11623E-05   -0.51876E-07  1215   0.164E-03    0.102E-02
RMM:  19    -0.122752306844E+04   -0.20647E-05   -0.35641E-07  1132   0.138E-03    0.122E-02
RMM:  20    -0.122752307378E+04   -0.53332E-05   -0.37375E-07  1172   0.128E-03    0.923E-03
RMM:  21    -0.122752307807E+04   -0.42904E-05   -0.39272E-07  1145   0.139E-03    0.628E-03
RMM:  22    -0.122752308129E+04   -0.32222E-05   -0.23734E-07  1089   0.108E-03    0.324E-03
RMM:  23    -0.122752308372E+04   -0.24315E-05   -0.12985E-07  1056   0.749E-04    0.230E-03
RMM:  24    -0.122752308666E+04   -0.29340E-05   -0.97462E-08   975   0.568E-04    0.306E-03
RMM:  25    -0.122752308963E+04   -0.29764E-05   -0.77210E-08   893   0.487E-04    0.237E-03
RMM:  26    -0.122752309219E+04   -0.25557E-05   -0.63520E-08   803   0.435E-04    0.693E-04
RMM:  27    -0.122752309491E+04   -0.27187E-05   -0.65168E-08   831   0.419E-04    0.705E-04
RMM:  28    -0.122752309662E+04   -0.17177E-05   -0.52812E-08   789   0.398E-04    0.307E-04
RMM:  29    -0.122752309833E+04   -0.17029E-05   -0.46775E-08   714   0.368E-04    0.395E-04
RMM:  30    -0.122752309948E+04   -0.11492E-05   -0.41435E-08   710   0.369E-04    0.203E-04
RMM:  31    -0.122752310044E+04   -0.95990E-06   -0.37969E-08   704   0.352E-04
  21 F= -.12356645E+04 E0= -.12356504E+04  d E =-.697910E-02  mag=    35.0000
       N       E                     dE             d eps       ncg     rms          rms(c)
DAV:   1    -0.122752318001E+04   -0.80536E-04   -0.16157E+00  2064   0.281E+00    0.361E-01
RMM:   2    -0.122752779609E+04   -0.46161E-02   -0.33486E-02  2408   0.380E-01    0.122E+00
RMM:   3    -0.122752835059E+04   -0.55450E-03   -0.49109E-03  2398   0.170E-01    0.153E+00
RMM:   4    -0.122752675303E+04    0.15976E-02   -0.34383E-03  2480   0.134E-01    0.531E-01
RMM:   5    -0.122752681621E+04   -0.63181E-04   -0.83674E-04  2352   0.662E-02    0.193E-01
RMM:   6    -0.122752716285E+04   -0.34663E-03   -0.28441E-04  2431   0.328E-02    0.246E-01
RMM:   7    -0.122752712009E+04    0.42758E-04   -0.18847E-04  2395   0.279E-02    0.160E-01
RMM:   8    -0.122752720605E+04   -0.85960E-04   -0.18592E-04  2317   0.282E-02    0.160E-01
RMM:   9    -0.122752719739E+04    0.86570E-05   -0.11563E-04  2275   0.221E-02    0.108E-01
RMM:  10    -0.122752720047E+04   -0.30788E-05   -0.52228E-05  1928   0.154E-02    0.893E-02
RMM:  11    -0.122752720510E+04   -0.46259E-05   -0.22498E-05  1619   0.964E-03    0.851E-02
RMM:  12    -0.122752719808E+04    0.70175E-05   -0.87794E-06  1483   0.683E-03    0.426E-02
RMM:  13    -0.122752721149E+04   -0.13407E-04   -0.38771E-06  1420   0.449E-03    0.212E-02
RMM:  14    -0.122752721920E+04   -0.77151E-05   -0.23973E-06  1371   0.353E-03    0.152E-02
RMM:  15    -0.122752722494E+04   -0.57398E-05   -0.14111E-06  1317   0.293E-03    0.125E-02
RMM:  16    -0.122752723005E+04   -0.51122E-05   -0.73012E-07  1243   0.209E-03    0.780E-03
RMM:  17    -0.122752723255E+04   -0.25021E-05   -0.44368E-07  1190   0.167E-03    0.638E-03
RMM:  18    -0.122752723346E+04   -0.90354E-06   -0.23098E-07  1109   0.109E-03
  22 F= -.12356683E+04 E0= -.12356542E+04  d E =-.380630E-02  mag=    35.0000
       N       E                     dE             d eps       ncg     rms          rms(c)
DAV:   1    -0.122752470317E+04    0.25294E-02   -0.16051E+00  2064   0.280E+00    0.358E-01
RMM:   2    -0.122752901011E+04   -0.43069E-02   -0.33155E-02  2406   0.378E-01    0.109E+00
RMM:   3    -0.122753059064E+04   -0.15805E-02   -0.49025E-03  2397   0.170E-01    0.170E+00
RMM:   4    -0.122752796452E+04    0.26261E-02   -0.35604E-03  2479   0.136E-01    0.536E-01
RMM:   5    -0.122752827998E+04   -0.31546E-03   -0.89879E-04  2345   0.694E-02    0.186E-01
RMM:   6    -0.122752865920E+04   -0.37922E-03   -0.28997E-04  2431   0.337E-02    0.245E-01
RMM:   7    -0.122752861985E+04    0.39349E-04   -0.18788E-04  2391   0.279E-02    0.167E-01
RMM:   8    -0.122752869837E+04   -0.78520E-04   -0.18482E-04  2314   0.280E-02    0.155E-01
RMM:   9    -0.122752869896E+04   -0.58966E-06   -0.11664E-04  2274   0.223E-02    0.109E-01
RMM:  10    -0.122752870015E+04   -0.11880E-05   -0.51524E-05  1937   0.155E-02    0.964E-02
RMM:  11    -0.122752870724E+04   -0.70911E-05   -0.21927E-05  1613   0.943E-03    0.937E-02
RMM:  12    -0.122752869959E+04    0.76507E-05   -0.92730E-06  1482   0.692E-03    0.456E-02
RMM:  13    -0.122752871830E+04   -0.18705E-04   -0.44191E-06  1436   0.476E-03    0.219E-02
RMM:  14    -0.122752872863E+04   -0.10333E-04   -0.27952E-06  1377   0.388E-03    0.179E-02
RMM:  15    -0.122752873585E+04   -0.72257E-05   -0.14308E-06  1318   0.302E-03    0.160E-02
RMM:  16    -0.122752874092E+04   -0.50693E-05   -0.60727E-07  1231   0.195E-03    0.987E-03
RMM:  17    -0.122752874382E+04   -0.29005E-05   -0.36544E-07  1186   0.149E-03    0.700E-03
RMM:  18    -0.122752874622E+04   -0.23981E-05   -0.22737E-07  1102   0.105E-03    0.631E-03
RMM:  19    -0.122752875046E+04   -0.42417E-05   -0.20500E-07  1074   0.100E-03    0.657E-03
RMM:  20    -0.122752875720E+04   -0.67320E-05   -0.19087E-07  1145   0.909E-04    0.587E-03
RMM:  21    -0.122752876072E+04   -0.35277E-05   -0.14792E-07  1053   0.833E-04    0.410E-03
RMM:  22    -0.122752876218E+04   -0.14602E-05   -0.92575E-08   923   0.677E-04    0.207E-03
RMM:  23    -0.122752876454E+04   -0.23558E-05   -0.58499E-08   889   0.487E-04    0.117E-03
RMM:  24    -0.122752876810E+04   -0.35636E-05   -0.53667E-08   848   0.427E-04    0.144E-03
RMM:  25    -0.122752877138E+04   -0.32802E-05   -0.48959E-08   802   0.398E-04    0.149E-03
RMM:  26    -0.122752877454E+04   -0.31535E-05   -0.50079E-08   792   0.384E-04    0.724E-04
RMM:  27    -0.122752877738E+04   -0.28450E-05   -0.52404E-08   790   0.387E-04    0.376E-04
RMM:  28    -0.122752877984E+04   -0.24585E-05   -0.55476E-08   803   0.384E-04    0.460E-04
RMM:  29    -0.122752878234E+04   -0.25036E-05   -0.60331E-08   804   0.389E-04    0.207E-04
RMM:  30    -0.122752878357E+04   -0.12313E-05   -0.49340E-08   773   0.384E-04    0.151E-04
RMM:  31    -0.122752878486E+04   -0.12868E-05   -0.48415E-08   720   0.362E-04    0.207E-04
RMM:  32    -0.122752878572E+04   -0.86243E-06   -0.44192E-08   743   0.370E-04
  23 F= -.12356695E+04 E0= -.12356555E+04  d E =-.503168E-02  mag=    35.0000
       N       E                     dE             d eps       ncg     rms          rms(c)
DAV:   1    -0.122752838597E+04    0.39889E-03   -0.15712E+00  2064   0.281E+00    0.312E-01
RMM:   2    -0.122753258271E+04   -0.41967E-02   -0.32724E-02  2373   0.369E-01    0.112E+00
RMM:   3    -0.122753234066E+04    0.24205E-03   -0.41856E-03  2363   0.164E-01    0.115E+00
RMM:   4    -0.122753201417E+04    0.32648E-03   -0.27415E-03  2510   0.117E-01    0.493E-01
RMM:   5    -0.122753180138E+04    0.21279E-03   -0.71250E-04  2364   0.600E-02    0.182E-01
RMM:   6    -0.122753208895E+04   -0.28757E-03   -0.31598E-04  2408   0.335E-02    0.281E-01
RMM:   7    -0.122753197187E+04    0.11708E-03   -0.24907E-04  2419   0.322E-02    0.157E-01
RMM:   8    -0.122753208551E+04   -0.11364E-03   -0.22957E-04  2348   0.311E-02    0.205E-01
RMM:   9    -0.122753203849E+04    0.47023E-04   -0.13122E-04  2229   0.227E-02    0.136E-01
RMM:  10    -0.122753203974E+04   -0.12545E-05   -0.57996E-05  1915   0.160E-02    0.590E-02
RMM:  11    -0.122753204899E+04   -0.92498E-05   -0.20941E-05  1635   0.966E-03    0.506E-02
RMM:  12    -0.122753205216E+04   -0.31685E-05   -0.74846E-06  1472   0.643E-03    0.287E-02
RMM:  13    -0.122753205945E+04   -0.72898E-05   -0.36385E-06  1411   0.436E-03    0.192E-02
RMM:  14    -0.122753206425E+04   -0.47991E-05   -0.19574E-06  1356   0.326E-03    0.136E-02
RMM:  15    -0.122753206686E+04   -0.26100E-05   -0.92170E-07  1266   0.232E-03    0.893E-03
RMM:  16    -0.122753206952E+04   -0.26643E-05   -0.43860E-07  1202   0.157E-03    0.571E-03
RMM:  17    -0.122753207384E+04   -0.43200E-05   -0.45923E-07  1198   0.153E-03    0.826E-03
RMM:  18    -0.122753207729E+04   -0.34478E-05   -0.51542E-07  1207   0.164E-03    0.754E-03
RMM:  19    -0.122753207971E+04   -0.24154E-05   -0.27965E-07  1131   0.126E-03    0.387E-03
RMM:  20    -0.122753208098E+04   -0.12738E-05   -0.12355E-07  1055   0.753E-04    0.360E-03
RMM:  21    -0.122753208239E+04   -0.14144E-05   -0.82989E-08   980   0.596E-04    0.263E-03
RMM:  22    -0.122753208409E+04   -0.16926E-05   -0.79679E-08   872   0.625E-04    0.248E-03
RMM:  23    -0.122753208675E+04   -0.26617E-05   -0.67819E-08   887   0.559E-04    0.108E-03
RMM:  24    -0.122753208877E+04   -0.20209E-05   -0.49900E-08   872   0.438E-04    0.115E-03
RMM:  25    -0.122753209011E+04   -0.13445E-05   -0.32233E-08   719   0.376E-04    0.104E-03
RMM:  26    -0.122753209206E+04   -0.19477E-05   -0.36137E-08   738   0.355E-04    0.492E-04
RMM:  27    -0.122753209407E+04   -0.20108E-05   -0.45988E-08   795   0.370E-04    0.380E-04
RMM:  28    -0.122753209543E+04   -0.13614E-05   -0.41135E-08   765   0.365E-04    0.250E-04
RMM:  29    -0.122753209657E+04   -0.11397E-05   -0.36278E-08   700   0.349E-04    0.143E-04
RMM:  30    -0.122753209743E+04   -0.85549E-06   -0.33877E-08   692   0.344E-04
  24 F= -.12356727E+04 E0= -.12356586E+04  d E =-.311294E-02  mag=    35.0000
       N       E                     dE             d eps       ncg     rms          rms(c)
DAV:   1    -0.122753094373E+04    0.11528E-02   -0.83404E-01  2088   0.205E+00    0.227E-01
RMM:   2    -0.122753312749E+04   -0.21838E-02   -0.17373E-02  2373   0.269E-01    0.816E-01
RMM:   3    -0.122753297373E+04    0.15376E-03   -0.22189E-03  2366   0.119E-01    0.841E-01
RMM:   4    -0.122753281786E+04    0.15587E-03   -0.14564E-03  2499   0.855E-02    0.359E-01
RMM:   5    -0.122753272272E+04    0.95134E-04   -0.37988E-04  2335   0.439E-02    0.132E-01
RMM:   6    -0.122753288867E+04   -0.16595E-03   -0.16781E-04  2341   0.246E-02    0.203E-01
RMM:   7    -0.122753283304E+04    0.55635E-04   -0.13257E-04  2404   0.235E-02    0.112E-01
RMM:   8    -0.122753290235E+04   -0.69314E-04   -0.12329E-04  2301   0.228E-02    0.154E-01
RMM:   9    -0.122753287267E+04    0.29681E-04   -0.70565E-05  2026   0.167E-02    0.992E-02
RMM:  10    -0.122753287836E+04   -0.56871E-05   -0.30700E-05  1759   0.118E-02    0.425E-02
RMM:  11    -0.122753288389E+04   -0.55339E-05   -0.10890E-05  1490   0.714E-03    0.353E-02
RMM:  12    -0.122753288673E+04   -0.28361E-05   -0.39838E-06  1428   0.490E-03    0.213E-02
RMM:  13    -0.122753289099E+04   -0.42612E-05   -0.19368E-06  1350   0.325E-03    0.146E-02
RMM:  14    -0.122753289380E+04   -0.28118E-05   -0.10659E-06  1284   0.249E-03    0.965E-03
RMM:  15    -0.122753289551E+04   -0.17079E-05   -0.50813E-07  1201   0.174E-03    0.629E-03
RMM:  16    -0.122753289711E+04   -0.16020E-05   -0.25413E-07  1180   0.117E-03    0.407E-03
RMM:  17    -0.122753289965E+04   -0.25439E-05   -0.24122E-07  1134   0.109E-03    0.569E-03
RMM:  18    -0.122753290180E+04   -0.21457E-05   -0.26920E-07  1113   0.118E-03    0.551E-03
RMM:  19    -0.122753290336E+04   -0.15564E-05   -0.15552E-07  1077   0.937E-04    0.264E-03
RMM:  20    -0.122753290415E+04   -0.79609E-06   -0.66855E-08   948   0.567E-04
  25 F= -.12356733E+04 E0= -.12356592E+04  d E =-.377434E-02  mag=    35.0000
       N       E                     dE             d eps       ncg     rms          rms(c)
DAV:   1    -0.122753385457E+04   -0.95121E-03   -0.55858E-01  2076   0.168E+00    0.180E-01
RMM:   2    -0.122753519504E+04   -0.13405E-02   -0.11666E-02  2352   0.219E-01    0.585E-01
RMM:   3    -0.122753531429E+04   -0.11925E-03   -0.14514E-03  2342   0.972E-02    0.748E-01
RMM:   4    -0.122753500376E+04    0.31053E-03   -0.96732E-04  2514   0.694E-02    0.293E-01
RMM:   5    -0.122753500124E+04    0.25220E-05   -0.25495E-04  2272   0.362E-02    0.112E-01
RMM:   6    -0.122753512178E+04   -0.12055E-03   -0.10916E-04  2252   0.201E-02    0.160E-01
RMM:   7    -0.122753509400E+04    0.27788E-04   -0.86656E-05  2377   0.192E-02    0.896E-02
RMM:   8    -0.122753514469E+04   -0.50698E-04   -0.86063E-05  2208   0.190E-02    0.127E-01
RMM:   9    -0.122753512668E+04    0.18018E-04   -0.50325E-05  1933   0.140E-02    0.865E-02
RMM:  10    -0.122753512854E+04   -0.18610E-05   -0.21739E-05  1622   0.101E-02    0.315E-02
RMM:  11    -0.122753513488E+04   -0.63480E-05   -0.74390E-06  1470   0.602E-03    0.298E-02
RMM:  12    -0.122753513746E+04   -0.25772E-05   -0.28678E-06  1398   0.413E-03    0.178E-02
RMM:  13    -0.122753514142E+04   -0.39538E-05   -0.14179E-06  1316   0.282E-03    0.122E-02
RMM:  14    -0.122753514435E+04   -0.29334E-05   -0.77633E-07  1245   0.216E-03    0.848E-03
RMM:  15    -0.122753514568E+04   -0.13323E-05   -0.38272E-07  1186   0.150E-03    0.556E-03
RMM:  16    -0.122753514682E+04   -0.11384E-05   -0.16460E-07  1145   0.933E-04    0.359E-03
RMM:  17    -0.122753514851E+04   -0.16898E-05   -0.12392E-07  1068   0.749E-04    0.391E-03
RMM:  18    -0.122753515061E+04   -0.20997E-05   -0.18642E-07  1078   0.963E-04    0.497E-03
RMM:  19    -0.122753515283E+04   -0.22171E-05   -0.13940E-07  1091   0.872E-04    0.231E-03
RMM:  20    -0.122753515390E+04   -0.10709E-05   -0.63512E-08   928   0.564E-04    0.217E-03
RMM:  21    -0.122753515460E+04   -0.70322E-06   -0.38584E-08   832   0.445E-04
  26 F= -.12356755E+04 E0= -.12356614E+04  d E =-.217859E-02  mag=    35.0000
       N       E                     dE             d eps       ncg     rms          rms(c)
DAV:   1    -0.122753340914E+04    0.17448E-02   -0.15188E+00  2064   0.277E+00    0.297E-01
RMM:   2    -0.122753722149E+04   -0.38124E-02   -0.31707E-02  2344   0.362E-01    0.990E-01
RMM:   3    -0.122753744770E+04   -0.22621E-03   -0.39748E-03  2340   0.161E-01    0.119E+00
RMM:   4    -0.122753675446E+04    0.69323E-03   -0.26169E-03  2523   0.114E-01    0.484E-01
RMM:   5    -0.122753663679E+04    0.11767E-03   -0.67960E-04  2345   0.588E-02    0.189E-01
RMM:   6    -0.122753690879E+04   -0.27200E-03   -0.29619E-04  2396   0.326E-02    0.264E-01
RMM:   7    -0.122753681604E+04    0.92749E-04   -0.23440E-04  2417   0.314E-02    0.151E-01
RMM:   8    -0.122753692977E+04   -0.11373E-03   -0.23412E-04  2347   0.311E-02    0.210E-01
RMM:   9    -0.122753688314E+04    0.46632E-04   -0.13879E-04  2234   0.229E-02    0.146E-01
RMM:  10    -0.122753687591E+04    0.72297E-05   -0.61480E-05  1945   0.167E-02    0.519E-02
RMM:  11    -0.122753689012E+04   -0.14219E-04   -0.20839E-05  1644   0.952E-03    0.507E-02
RMM:  12    -0.122753689346E+04   -0.33355E-05   -0.78730E-06  1474   0.650E-03    0.283E-02
RMM:  13    -0.122753690170E+04   -0.82350E-05   -0.38981E-06  1415   0.449E-03    0.196E-02
RMM:  14    -0.122753690723E+04   -0.55326E-05   -0.19272E-06  1361   0.326E-03    0.138E-02
RMM:  15    -0.122753690941E+04   -0.21864E-05   -0.85486E-07  1256   0.223E-03    0.899E-03
RMM:  16    -0.122753691157E+04   -0.21535E-05   -0.36206E-07  1195   0.140E-03    0.651E-03
RMM:  17    -0.122753691600E+04   -0.44318E-05   -0.38595E-07  1187   0.132E-03    0.785E-03
RMM:  18    -0.122753692053E+04   -0.45257E-05   -0.61351E-07  1228   0.174E-03    0.877E-03
RMM:  19    -0.122753692420E+04   -0.36764E-05   -0.36045E-07  1172   0.143E-03    0.437E-03
RMM:  20    -0.122753692613E+04   -0.19296E-05   -0.16565E-07  1083   0.876E-04    0.363E-03
RMM:  21    -0.122753692788E+04   -0.17521E-05   -0.10881E-07  1018   0.676E-04    0.254E-03
RMM:  22    -0.122753693013E+04   -0.22477E-05   -0.10313E-07   961   0.670E-04    0.290E-03
RMM:  23    -0.122753693240E+04   -0.22665E-05   -0.84311E-08   904   0.625E-04    0.119E-03
[...]
RMM:   5    -0.122755816228E+04   -0.83203E-05   -0.32793E-06  1382   0.454E-03    0.153E-02
RMM:   6    -0.122755816294E+04   -0.66230E-06   -0.89625E-07  1227   0.256E-03
 179 F= -.12356995E+04 E0= -.12356856E+04  d E =-.189496E-04  mag=    35.0000
       N       E                     dE             d eps       ncg     rms          rms(c)
DAV:   1    -0.122755815787E+04    0.44024E-05   -0.28149E-03  2148   0.114E-01    0.225E-02
RMM:   2    -0.122755819322E+04   -0.35345E-04   -0.90553E-05  2380   0.200E-02    0.144E-01
RMM:   3    -0.122755815350E+04    0.39715E-04   -0.22759E-05  1731   0.108E-02    0.904E-02
RMM:   4    -0.122755815318E+04    0.32532E-06   -0.13500E-05  1549   0.831E-03    0.222E-02
RMM:   5    -0.122755816292E+04   -0.97383E-05   -0.35065E-06  1387   0.466E-03    0.196E-02
RMM:   6    -0.122755816310E+04   -0.18277E-06   -0.14693E-06  1292   0.317E-03
 180 F= -.12356995E+04 E0= -.12356856E+04  d E =-.250566E-04  mag=    35.0000
       N       E                     dE             d eps       ncg     rms          rms(c)
DAV:   1    -0.122755817143E+04   -0.85190E-05   -0.32326E-03  2196   0.123E-01    0.232E-02
RMM:   2    -0.122755820154E+04   -0.30102E-04   -0.10451E-04  2427   0.223E-02    0.109E-01
RMM:   3    -0.122755817680E+04    0.24740E-04   -0.26225E-05  1821   0.115E-02    0.105E-01
RMM:   4    -0.122755816555E+04    0.11245E-04   -0.11274E-05  1528   0.741E-03    0.304E-02
RMM:   5    -0.122755817594E+04   -0.10392E-04   -0.55891E-06  1423   0.576E-03    0.133E-02
RMM:   6    -0.122755817734E+04   -0.13937E-05   -0.10124E-06  1227   0.281E-03    0.922E-03
RMM:   7    -0.122755817784E+04   -0.50669E-06   -0.77863E-07  1212   0.228E-03
 181 F= -.12356996E+04 E0= -.12356856E+04  d E =-.213675E-04  mag=    35.0000
       N       E                     dE             d eps       ncg     rms          rms(c)
DAV:   1    -0.122755814234E+04    0.35001E-04   -0.15686E-02  2100   0.268E-01    0.329E-02
RMM:   2    -0.122755820600E+04   -0.63668E-04   -0.34959E-04  2405   0.371E-02    0.208E-01
RMM:   3    -0.122755812599E+04    0.80014E-04   -0.50804E-05  2242   0.173E-02    0.477E-02
RMM:   4    -0.122755817983E+04   -0.53839E-04   -0.29620E-05  1954   0.123E-02    0.615E-02
RMM:   5    -0.122755816902E+04    0.10806E-04   -0.82751E-06  1476   0.694E-03    0.284E-02
RMM:   6    -0.122755817379E+04   -0.47705E-05   -0.40860E-06  1415   0.474E-03    0.259E-02
RMM:   7    -0.122755817581E+04   -0.20168E-05   -0.37397E-06  1403   0.442E-03    0.238E-02
RMM:   8    -0.122755817662E+04   -0.80661E-06   -0.32755E-06  1381   0.434E-03
 182 F= -.12356996E+04 E0= -.12356856E+04  d E =-.347149E-04  mag=    35.0000
       N       E                     dE             d eps       ncg     rms          rms(c)
DAV:   1    -0.122755816896E+04    0.68523E-05   -0.44748E-03  2244   0.143E-01    0.303E-02
RMM:   2    -0.122755842309E+04   -0.25413E-03   -0.17287E-04  2447   0.269E-02    0.509E-01
RMM:   3    -0.122755801642E+04    0.40667E-03   -0.11640E-04  2046   0.238E-02    0.823E-02
RMM:   4    -0.122755814776E+04   -0.13135E-03   -0.42073E-05  1791   0.152E-02    0.253E-02
RMM:   5    -0.122755817690E+04   -0.29137E-04   -0.60924E-06  1508   0.611E-03    0.310E-02
RMM:   6    -0.122755817992E+04   -0.30157E-05   -0.27964E-06  1339   0.432E-03    0.327E-02
RMM:   7    -0.122755817894E+04    0.98025E-06   -0.96873E-07  1225   0.274E-03
 183 F= -.12356996E+04 E0= -.12356856E+04  d E =-.112821E-04  mag=    35.0000
       N       E                     dE             d eps       ncg     rms          rms(c)
DAV:   1    -0.122755809551E+04    0.84411E-04   -0.36819E-02  2064   0.408E-01    0.430E-02
RMM:   2    -0.122755816251E+04   -0.67004E-04   -0.74998E-04  2372   0.529E-02    0.850E-02
RMM:   3    -0.122755819628E+04   -0.33767E-04   -0.99164E-05  2318   0.235E-02    0.191E-01
RMM:   4    -0.122755817561E+04    0.20665E-04   -0.52659E-05  2136   0.144E-02    0.151E-01
RMM:   5    -0.122755814950E+04    0.26114E-04   -0.32015E-05  1755   0.132E-02    0.289E-02
RMM:   6    -0.122755816951E+04   -0.20012E-04   -0.68789E-06  1463   0.586E-03    0.303E-02
RMM:   7    -0.122755817461E+04   -0.51024E-05   -0.44293E-06  1405   0.470E-03    0.261E-02
RMM:   8    -0.122755817763E+04   -0.30177E-05   -0.46085E-06  1432   0.494E-03    0.273E-02
RMM:   9    -0.122755817919E+04   -0.15635E-05   -0.38039E-06  1395   0.442E-03    0.194E-02
RMM:  10    -0.122755817973E+04   -0.53683E-06   -0.18123E-06  1327   0.342E-03
 184 F= -.12356996E+04 E0= -.12356857E+04  d E =-.376877E-04  mag=    35.0000
       N       E                     dE             d eps       ncg     rms          rms(c)
DAV:   1    -0.122755778874E+04    0.39045E-03   -0.14724E-01  2076   0.816E-01    0.843E-02
RMM:   2    -0.122755803973E+04   -0.25099E-03   -0.29722E-03  2380   0.104E-01    0.689E-02
RMM:   3    -0.122755826017E+04   -0.22044E-03   -0.34206E-04  2343   0.451E-02    0.370E-01
RMM:   4    -0.122755801785E+04    0.24232E-03   -0.15150E-04  2458   0.249E-02    0.154E-01
RMM:   5    -0.122755808749E+04   -0.69636E-04   -0.69308E-05  1971   0.188E-02    0.396E-02
RMM:   6    -0.122755811068E+04   -0.23197E-04   -0.15678E-05  1840   0.843E-03    0.391E-02
RMM:   7    -0.122755811480E+04   -0.41139E-05   -0.11611E-05  1596   0.742E-03    0.392E-02
RMM:   8    -0.122755812622E+04   -0.11421E-04   -0.15836E-05  1796   0.832E-03    0.498E-02
RMM:   9    -0.122755812571E+04    0.51162E-06   -0.10480E-05  1552   0.696E-03    0.364E-02
RMM:  10    -0.122755812341E+04    0.23003E-05   -0.40653E-06  1393   0.474E-03    0.157E-02
RMM:  11    -0.122755812606E+04   -0.26517E-05   -0.11231E-06  1274   0.258E-03    0.114E-02
RMM:  12    -0.122755812684E+04   -0.78444E-06   -0.54705E-07  1198   0.184E-03
 185 F= -.12356996E+04 E0= -.12356857E+04  d E =-.361984E-04  mag=    35.0000
       N       E                     dE             d eps       ncg     rms          rms(c)
DAV:   1    -0.122755810540E+04    0.20655E-04   -0.22201E-02  2196   0.317E-01    0.328E-02
RMM:   2    -0.122755815015E+04   -0.44745E-04   -0.44780E-04  2375   0.406E-02    0.110E-01
RMM:   3    -0.122755815083E+04   -0.68488E-06   -0.53381E-05  2227   0.176E-02    0.137E-01
RMM:   4    -0.122755814428E+04    0.65580E-05   -0.31639E-05  1998   0.125E-02    0.595E-02
RMM:   5    -0.122755814862E+04   -0.43457E-05   -0.88720E-06  1488   0.729E-03    0.192E-02
RMM:   6    -0.122755815399E+04   -0.53641E-05   -0.28345E-06  1383   0.398E-03    0.175E-02
RMM:   7    -0.122755815631E+04   -0.23216E-05   -0.21748E-06  1339   0.361E-03    0.172E-02
RMM:   8    -0.122755815789E+04   -0.15855E-05   -0.22893E-06  1342   0.357E-03    0.161E-02
RMM:   9    -0.122755816000E+04   -0.21122E-05   -0.21329E-06  1330   0.333E-03    0.180E-02
RMM:  10    -0.122755815948E+04    0.52733E-06   -0.11058E-06  1253   0.271E-03
 186 F= -.12356996E+04 E0= -.12356857E+04  d E =-.488734E-04  mag=    35.0000
       N       E                     dE             d eps       ncg     rms          rms(c)
DAV:   1    -0.122755815203E+04    0.79791E-05   -0.12132E-02  2220   0.235E-01    0.259E-02
RMM:   2    -0.122755816923E+04   -0.17209E-04   -0.25633E-04  2371   0.304E-02    0.204E-02
RMM:   3    -0.122755818844E+04   -0.19201E-04   -0.27275E-05  2026   0.130E-02    0.111E-01
RMM:   4    -0.122755816266E+04    0.25778E-04   -0.12474E-05  1744   0.748E-03    0.308E-02
RMM:   5    -0.122755817514E+04   -0.12485E-04   -0.58103E-06  1448   0.647E-03    0.124E-02
RMM:   6    -0.122755817755E+04   -0.24021E-05   -0.14677E-06  1264   0.307E-03    0.118E-02
RMM:   7    -0.122755817863E+04   -0.10812E-05   -0.16821E-06  1328   0.333E-03    0.153E-02
RMM:   8    -0.122755817908E+04   -0.45183E-06   -0.14810E-06  1287   0.281E-03
 187 F= -.12356997E+04 E0= -.12356857E+04  d E =-.374561E-04  mag=    35.0000
       N       E                     dE             d eps       ncg     rms          rms(c)
DAV:   1    -0.122755788865E+04    0.28998E-03   -0.10869E-01  2064   0.703E-01    0.777E-02
RMM:   2    -0.122755810604E+04   -0.21739E-03   -0.23265E-03  2357   0.918E-02    0.199E-01
RMM:   3    -0.122755822563E+04   -0.11959E-03   -0.28252E-04  2325   0.406E-02    0.415E-01
RMM:   4    -0.122755803702E+04    0.18861E-03   -0.18434E-04  2412   0.299E-02    0.115E-01
RMM:   5    -0.122755809289E+04   -0.55870E-04   -0.45921E-05  1915   0.160E-02    0.447E-02
RMM:   6    -0.122755812514E+04   -0.32248E-04   -0.16786E-05  1907   0.845E-03    0.520E-02
RMM:   7    -0.122755812995E+04   -0.48122E-05   -0.14895E-05  1604   0.810E-03    0.533E-02
RMM:   8    -0.122755813682E+04   -0.68673E-05   -0.14670E-05  1768   0.815E-03    0.388E-02
RMM:   9    -0.122755814025E+04   -0.34337E-05   -0.83821E-06  1474   0.643E-03    0.379E-02
RMM:  10    -0.122755813696E+04    0.32976E-05   -0.37440E-06  1370   0.453E-03    0.126E-02
RMM:  11    -0.122755813954E+04   -0.25867E-05   -0.97589E-07  1248   0.249E-03    0.115E-02
RMM:  12    -0.122755813934E+04    0.20202E-06   -0.48342E-07  1191   0.180E-03
 188 F= -.12356997E+04 E0= -.12356857E+04  d E =-.513972E-04  mag=    35.0000
       N       E                     dE             d eps       ncg     rms          rms(c)
DAV:   1    -0.122755813791E+04    0.16359E-05   -0.14282E-02  2184   0.255E-01    0.281E-02
RMM:   2    -0.122755816284E+04   -0.24932E-04   -0.30255E-04  2358   0.331E-02    0.626E-02
RMM:   3    -0.122755818661E+04   -0.23772E-04   -0.36819E-05  2088   0.147E-02    0.171E-01
RMM:   4    -0.122755814494E+04    0.41674E-04   -0.25066E-05  1895   0.113E-02    0.456E-02
RMM:   5    -0.122755816259E+04   -0.17653E-04   -0.70017E-06  1460   0.678E-03    0.214E-02
RMM:   6    -0.122755816816E+04   -0.55698E-05   -0.23708E-06  1339   0.380E-03    0.156E-02
RMM:   7    -0.122755817059E+04   -0.24266E-05   -0.17323E-06  1318   0.339E-03    0.169E-02
RMM:   8    -0.122755817111E+04   -0.52265E-06   -0.18605E-06  1333   0.334E-03
 189 F= -.12356997E+04 E0= -.12356857E+04  d E =-.637081E-04  mag=    35.0000
       N       E                     dE             d eps       ncg     rms          rms(c)
DAV:   1    -0.122755815409E+04    0.16497E-04   -0.16208E-02  2232   0.269E-01    0.311E-02
RMM:   2    -0.122755819682E+04   -0.42735E-04   -0.35052E-04  2321   0.363E-02    0.951E-02
RMM:   3    -0.122755817788E+04    0.18940E-04   -0.46129E-05  2131   0.164E-02    0.882E-02
RMM:   4    -0.122755818470E+04   -0.68145E-05   -0.20154E-05  1844   0.908E-03    0.985E-02
RMM:   5    -0.122755817912E+04    0.55763E-05   -0.11547E-05  1516   0.812E-03    0.249E-02
RMM:   6    -0.122755818394E+04   -0.48219E-05   -0.37931E-06  1390   0.473E-03    0.185E-02
RMM:   7    -0.122755818778E+04   -0.38354E-05   -0.35524E-06  1415   0.417E-03    0.261E-02
RMM:   8    -0.122755818734E+04    0.43758E-06   -0.28611E-06  1337   0.406E-03
 190 F= -.12356997E+04 E0= -.12356858E+04  d E =-.357722E-04  mag=    35.0000
       N       E                     dE             d eps       ncg     rms          rms(c)
DAV:   1    -0.122755800773E+04    0.18005E-03   -0.63434E-02  2088   0.533E-01    0.598E-02
RMM:   2    -0.122755831306E+04   -0.30533E-03   -0.13573E-03  2294   0.709E-02    0.478E-01
RMM:   3    -0.122755795499E+04    0.35807E-03   -0.21325E-04  2259   0.364E-02    0.494E-02
RMM:   4    -0.122755812880E+04   -0.17381E-03   -0.90872E-05  2308   0.215E-02    0.738E-02
RMM:   5    -0.122755813016E+04   -0.13597E-05   -0.22200E-05  1789   0.109E-02    0.652E-02
RMM:   6    -0.122755813470E+04   -0.45397E-05   -0.14733E-05  1751   0.801E-03    0.450E-02
RMM:   7    -0.122755813958E+04   -0.48794E-05   -0.12658E-05  1579   0.767E-03    0.593E-02
RMM:   8    -0.122755814022E+04   -0.64402E-06   -0.10231E-05  1516   0.688E-03    0.688E-02
RMM:   9    -0.122755813357E+04    0.66542E-05   -0.39257E-06  1397   0.492E-03    0.430E-02
RMM:  10    -0.122755813608E+04   -0.25131E-05   -0.17670E-06  1319   0.317E-03    0.302E-02
RMM:  11    -0.122755813957E+04   -0.34897E-05   -0.12835E-06  1285   0.254E-03    0.150E-02
RMM:  12    -0.122755814227E+04   -0.26959E-05   -0.11343E-06  1282   0.258E-03    0.114E-02
RMM:  13    -0.122755814374E+04   -0.14734E-05   -0.60239E-07  1211   0.199E-03    0.827E-03
RMM:  14    -0.122755814384E+04   -0.10097E-06   -0.26659E-07  1167   0.141E-03
 191 F= -.12356997E+04 E0= -.12356858E+04  d E =-.311322E-04  mag=    35.0000
       N       E                     dE             d eps       ncg     rms          rms(c)
DAV:   1    -0.122755814605E+04   -0.23087E-05   -0.14686E-02  2208   0.256E-01    0.272E-02
RMM:   2    -0.122755817740E+04   -0.31351E-04   -0.30045E-04  2268   0.328E-02    0.110E-01
RMM:   3    -0.122755816172E+04    0.15681E-04   -0.33840E-05  2066   0.147E-02    0.798E-02
RMM:   4    -0.122755817368E+04   -0.11957E-04   -0.19634E-05  1888   0.990E-03    0.441E-02
RMM:   5    -0.122755817286E+04    0.81664E-06   -0.54563E-06  1426   0.594E-03
 192 F= -.12356997E+04 E0= -.12356858E+04  d E =-.414740E-04  mag=    35.0000
       N       E                     dE             d eps       ncg     rms          rms(c)
DAV:   1    -0.122755816225E+04    0.11429E-04   -0.16383E-02  2208   0.273E-01    0.399E-02
RMM:   2    -0.122755828162E+04   -0.11937E-03   -0.42829E-04  2336   0.426E-02    0.206E-01
RMM:   3    -0.122755818311E+04    0.98510E-04   -0.87094E-05  2252   0.219E-02    0.141E-01
RMM:   4    -0.122755818567E+04   -0.25587E-05   -0.32667E-05  1928   0.120E-02    0.705E-02
RMM:   5    -0.122755820164E+04   -0.15964E-04   -0.16285E-05  1583   0.946E-03    0.416E-02
RMM:   6    -0.122755819815E+04    0.34884E-05   -0.45033E-06  1398   0.539E-03    0.114E-02
RMM:   7    -0.122755820122E+04   -0.30707E-05   -0.16683E-06  1294   0.297E-03    0.136E-02
RMM:   8    -0.122755820171E+04   -0.49399E-06   -0.15709E-06  1283   0.313E-03
 193 F= -.12356998E+04 E0= -.12356858E+04  d E =-.427769E-04  mag=    35.0000
       N       E                     dE             d eps       ncg     rms          rms(c)
DAV:   1    -0.122755788097E+04    0.32025E-03   -0.14674E-01  2064   0.814E-01    0.860E-02
RMM:   2    -0.122755837118E+04   -0.49022E-03   -0.30847E-03  2265   0.107E-01    0.522E-01
RMM:   3    -0.122755799863E+04    0.37255E-03   -0.41874E-04  2254   0.517E-02    0.143E-01
RMM:   4    -0.122755823640E+04   -0.23777E-03   -0.23402E-04  2482   0.326E-02    0.162E-01
RMM:   5    -0.122755817031E+04    0.66096E-04   -0.56089E-05  1978   0.162E-02    0.680E-02
RMM:   6    -0.122755818736E+04   -0.17050E-04   -0.21520E-05  1819   0.913E-03    0.642E-02
RMM:   7    -0.122755819211E+04   -0.47567E-05   -0.14301E-05  1731   0.774E-03    0.433E-02
RMM:   8    -0.122755820263E+04   -0.10516E-04   -0.15649E-05  1709   0.824E-03    0.627E-02
RMM:   9    -0.122755820600E+04   -0.33716E-05   -0.13270E-05  1648   0.760E-03    0.539E-02
RMM:  10    -0.122755820133E+04    0.46697E-05   -0.56627E-06  1436   0.576E-03    0.260E-02
RMM:  11    -0.122755820542E+04   -0.40855E-05   -0.19188E-06  1342   0.327E-03    0.165E-02
RMM:  12    -0.122755820763E+04   -0.22116E-05   -0.10962E-06  1273   0.261E-03    0.734E-03
RMM:  13    -0.122755820923E+04   -0.15999E-05   -0.50654E-07  1192   0.183E-03    0.702E-03
RMM:  14    -0.122755821007E+04   -0.83973E-06   -0.24093E-07  1176   0.134E-03
 194 F= -.12356998E+04 E0= -.12356859E+04  d E =-.929702E-04  mag=    35.0000
       N       E                     dE             d eps       ncg     rms          rms(c)
DAV:   1    -0.122755823781E+04   -0.28576E-04   -0.69668E-03  2196   0.177E-01    0.231E-02
RMM:   2    -0.122755826768E+04   -0.29871E-04   -0.16085E-04  2399   0.249E-02    0.150E-01
RMM:   3    -0.122755822546E+04    0.42212E-04   -0.24766E-05  1933   0.122E-02    0.283E-02
RMM:   4    -0.122755825440E+04   -0.28935E-04   -0.12516E-05  1652   0.832E-03    0.338E-02
RMM:   5    -0.122755825171E+04    0.26878E-05   -0.33299E-06  1374   0.487E-03    0.199E-02
RMM:   6    -0.122755825361E+04   -0.18955E-05   -0.19035E-06  1312   0.325E-03    0.224E-02
RMM:   7    -0.122755825367E+04   -0.64967E-07   -0.15663E-06  1299   0.315E-03
 195 F= -.12356999E+04 E0= -.12356859E+04  d E =-.404783E-04  mag=    35.0000
       N       E                     dE             d eps       ncg     rms          rms(c)
DAV:   1    -0.122755819195E+04    0.61659E-04   -0.42754E-02  2064   0.438E-01    0.549E-02
RMM:   2    -0.122755827667E+04   -0.84725E-04   -0.95991E-04  2379   0.605E-02    0.123E-01
RMM:   3    -0.122755834285E+04   -0.66178E-04   -0.13180E-04  2351   0.273E-02    0.306E-01
RMM:   4    -0.122755823223E+04    0.11062E-03   -0.10069E-04  2218   0.211E-02    0.114E-01
RMM:   5    -0.122755825772E+04   -0.25493E-04   -0.38077E-05  1813   0.140E-02    0.343E-02
RMM:   6    -0.122755828227E+04   -0.24551E-04   -0.10397E-05  1620   0.719E-03    0.329E-02
RMM:   7    -0.122755828653E+04   -0.42523E-05   -0.84783E-06  1556   0.654E-03    0.328E-02
RMM:   8    -0.122755828731E+04   -0.78512E-06   -0.79338E-06  1531   0.642E-03
 196 F= -.12356999E+04 E0= -.12356859E+04  d E =-.663934E-04  mag=    35.0000
       N       E                     dE             d eps       ncg     rms          rms(c)
DAV:   1    -0.122755830423E+04   -0.17703E-04   -0.20703E-03  2292   0.984E-02    0.266E-02
RMM:   2    -0.122755837564E+04   -0.71413E-04   -0.11048E-04  2329   0.224E-02    0.175E-01
RMM:   3    -0.122755828780E+04    0.87842E-04   -0.42823E-05  1879   0.139E-02    0.171E-02
RMM:   4    -0.122755830733E+04   -0.19528E-04   -0.63360E-06  1455   0.586E-03    0.161E-02
RMM:   5    -0.122755830924E+04   -0.19134E-05   -0.14268E-06  1282   0.314E-03    0.140E-02
RMM:   6    -0.122755830973E+04   -0.48981E-06   -0.68610E-07  1200   0.214E-03
 197 F= -.12356999E+04 E0= -.12356860E+04  d E =-.211350E-04  mag=    35.0000
       N       E                     dE             d eps       ncg     rms          rms(c)
DAV:   1    -0.122755831276E+04   -0.35211E-05   -0.10017E-02  2100   0.211E-01    0.256E-02
RMM:   2    -0.122755832986E+04   -0.17101E-04   -0.20777E-04  2418   0.280E-02    0.680E-02
RMM:   3    -0.122755833748E+04   -0.76185E-05   -0.24749E-05  2004   0.116E-02    0.122E-01
RMM:   4    -0.122755832158E+04    0.15907E-04   -0.18148E-05  1763   0.963E-03    0.420E-02
RMM:   5    -0.122755833052E+04   -0.89487E-05   -0.64580E-06  1447   0.646E-03    0.202E-02
RMM:   6    -0.122755833400E+04   -0.34763E-05   -0.30160E-06  1372   0.410E-03    0.207E-02
RMM:   7    -0.122755833584E+04   -0.18396E-05   -0.28658E-06  1370   0.398E-03    0.220E-02
RMM:   8    -0.122755833558E+04    0.25666E-06   -0.21272E-06  1320   0.353E-03
 198 F= -.12356999E+04 E0= -.12356860E+04  d E =-.442016E-04  mag=    35.0000
       N       E                     dE             d eps       ncg     rms          rms(c)
DAV:   1    -0.122755824591E+04    0.89925E-04   -0.39958E-02  2088   0.421E-01    0.501E-02
RMM:   2    -0.122755834490E+04   -0.98989E-04   -0.84285E-04  2378   0.570E-02    0.193E-01
RMM:   3    -0.122755832526E+04    0.19642E-04   -0.10979E-04  2337   0.246E-02    0.200E-01
RMM:   4    -0.122755831263E+04    0.12632E-04   -0.78870E-05  2201   0.192E-02    0.919E-02
RMM:   5    -0.122755831959E+04   -0.69615E-05   -0.25368E-05  1738   0.118E-02    0.315E-02
RMM:   6    -0.122755832731E+04   -0.77193E-05   -0.90083E-06  1518   0.665E-03    0.329E-02
RMM:   7    -0.122755833147E+04   -0.41620E-05   -0.90548E-06  1613   0.645E-03    0.379E-02
RMM:   8    -0.122755833069E+04    0.78585E-06   -0.70146E-06  1467   0.591E-03
 199 F= -.12356999E+04 E0= -.12356860E+04  d E =-.337609E-04  mag=    35.0000
       N       E                     dE             d eps       ncg     rms          rms(c)
DAV:   1    -0.122755832333E+04    0.81428E-05   -0.79927E-03  2256   0.190E-01    0.322E-02
RMM:   2    -0.122755839088E+04   -0.67551E-04   -0.22084E-04  2438   0.316E-02    0.165E-01
RMM:   3    -0.122755833007E+04    0.60811E-04   -0.49859E-05  2105   0.160E-02    0.145E-01
