  150  150 1000    2
  0.2457321E+02  0.2559292E-08  0.2603301E-08  0.6766818E-09  0.5000000E-15
  1.000000000000000E-004
  CAR 
 Co–organic framework                  
    739      1    474
