  150  150 1000    2
  0.2595786E+02  0.2602996E-08  0.2629553E-08  0.6750381E-09  0.5000000E-15
  1.000000000000000E-004
  CAR 
 Co–organic framework                  
    739      1    474
