 running on   24 total cores
 distrk:  each k-point on   24 cores,    1 groups
 distr:  one band on    4 cores,    6 groups
 using from now: INCAR     
 vasp.5.4.4.18Apr17-6-g9f103f2a35 (build May 21 2019 18:55:53) complex          
  
 POSCAR found type information on POSCAR  O  C  H  Co Li
 POSCAR found :  5 types and     150 ions
 LDA part: xc-table for Pade appr. of Perdew
 POSCAR found type information on POSCAR  O  C  H  Co Li
 POSCAR found :  5 types and     150 ions
 POSCAR, INCAR and KPOINTS ok, starting setup
 FFT: planning ...
 WAVECAR not read
 WARNING: random wavefunctions but no delay for mixing, default for NELMDL
 entering main loop
       N       E                     dE             d eps       ncg     rms          rms(c)
DAV:   1     0.798895179394E+04    0.79890E+04   -0.31151E+05  1896   0.135E+03
DAV:   2     0.784969622149E+03   -0.72040E+04   -0.64918E+04  2208   0.414E+02
DAV:   3    -0.111740854870E+04   -0.19024E+04   -0.18028E+04  3204   0.213E+02
DAV:   4    -0.126892155386E+04   -0.15151E+03   -0.14038E+03  2964   0.678E+01
DAV:   5    -0.127715831722E+04   -0.82368E+01   -0.75242E+01  3156   0.150E+01    0.150E+02
RMM:   6    -0.172624044358E+04   -0.44908E+03   -0.30930E+03  2445   0.133E+02    0.483E+02
RMM:   7    -0.150544351445E+04    0.22080E+03   -0.23002E+02  1909   0.466E+01    0.291E+02
RMM:   8    -0.110563985348E+04    0.39980E+03   -0.48813E+02  2083   0.454E+01    0.804E+01
RMM:   9    -0.131824730546E+04   -0.21261E+03   -0.13741E+02  2093   0.245E+01    0.183E+02
RMM:  10    -0.124525312652E+04    0.72994E+02   -0.70380E+01  2052   0.193E+01    0.151E+02
RMM:  11    -0.113958499672E+04    0.10567E+03   -0.54779E+01  1947   0.171E+01    0.103E+02
RMM:  12    -0.118372437447E+04   -0.44139E+02   -0.75215E+01  1951   0.199E+01    0.128E+02
RMM:  13    -0.112174230898E+04    0.61982E+02   -0.50834E+01  2081   0.148E+01    0.905E+01
