 running on   24 total cores
 distrk:  each k-point on   24 cores,    1 groups
 distr:  one band on    4 cores,    6 groups
 using from now: INCAR     
 vasp.5.4.4.18Apr17-6-g9f103f2a35 (build May 21 2019 18:55:53) complex          
  
 POSCAR found type information on POSCAR  O  C  H  Co Li
 POSCAR found :  5 types and     150 ions
 LDA part: xc-table for Pade appr. of Perdew
 POSCAR found type information on POSCAR  O  C  H  Co Li
 POSCAR found :  5 types and     150 ions
 POSCAR, INCAR and KPOINTS ok, starting setup
 FFT: planning ...
 WAVECAR not read
 WARNING: random wavefunctions but no delay for mixing, default for NELMDL
 entering main loop
       N       E                     dE             d eps       ncg     rms          rms(c)
DAV:   1     0.798895179394E+04    0.79890E+04   -0.31151E+05  1896   0.135E+03
DAV:   2     0.784969622149E+03   -0.72040E+04   -0.64918E+04  2208   0.414E+02
DAV:   3    -0.111740854870E+04   -0.19024E+04   -0.18028E+04  3204   0.213E+02
DAV:   4    -0.126892155386E+04   -0.15151E+03   -0.14038E+03  2964   0.678E+01
DAV:   5    -0.127715831722E+04   -0.82368E+01   -0.75242E+01  3156   0.150E+01    0.150E+02
RMM:   6    -0.172624044358E+04   -0.44908E+03   -0.30930E+03  2445   0.133E+02    0.483E+02
RMM:   7    -0.150544351445E+04    0.22080E+03   -0.23002E+02  1909   0.466E+01    0.291E+02
RMM:   8    -0.110563985348E+04    0.39980E+03   -0.48813E+02  2083   0.454E+01    0.804E+01
RMM:   9    -0.131824730546E+04   -0.21261E+03   -0.13741E+02  2093   0.245E+01    0.183E+02
RMM:  10    -0.124525312652E+04    0.72994E+02   -0.70380E+01  2052   0.193E+01    0.151E+02
RMM:  11    -0.113958499672E+04    0.10567E+03   -0.54779E+01  1947   0.171E+01    0.103E+02
RMM:  12    -0.118372437447E+04   -0.44139E+02   -0.75215E+01  1951   0.199E+01    0.128E+02
RMM:  13    -0.112174230898E+04    0.61982E+02   -0.50834E+01  2081   0.148E+01    0.905E+01
RMM:  14    -0.109810714605E+04    0.23635E+02   -0.42489E+01  1982   0.138E+01    0.868E+01
RMM:  15    -0.109241405896E+04    0.56931E+01   -0.21432E+01  2013   0.101E+01    0.852E+01
RMM:  16    -0.107645746312E+04    0.15957E+02   -0.12724E+01  2031   0.732E+00    0.605E+01
RMM:  17    -0.107148521864E+04    0.49722E+01   -0.63232E+00  2028   0.540E+00    0.479E+01
RMM:  18    -0.107326480928E+04   -0.17796E+01   -0.37283E+00  2050   0.412E+00    0.427E+01
RMM:  19    -0.107486334541E+04   -0.15985E+01   -0.32251E+00  2069   0.385E+00    0.393E+01
RMM:  20    -0.107712254528E+04   -0.22592E+01   -0.33137E+00  2023   0.375E+00    0.442E+01
RMM:  21    -0.107602414370E+04    0.10984E+01   -0.16776E+00  2024   0.276E+00    0.329E+01
RMM:  22    -0.107590239208E+04    0.12175E+00   -0.39071E-01  2079   0.132E+00    0.252E+01
RMM:  23    -0.107689378990E+04   -0.99140E+00   -0.17931E-01  2068   0.864E-01    0.317E+01
RMM:  24    -0.107682352514E+04    0.70265E-01   -0.21261E-01  2024   0.937E-01    0.258E+01
RMM:  25    -0.107735302935E+04   -0.52950E+00   -0.22448E-01  1937   0.103E+00    0.259E+01
RMM:  26    -0.107778609216E+04   -0.43306E+00   -0.17172E-01  2014   0.860E-01    0.260E+01
RMM:  27    -0.107792103524E+04   -0.13494E+00   -0.50136E-02  2022   0.518E-01    0.256E+01
RMM:  28    -0.107781587655E+04    0.10516E+00   -0.12260E-02  2245   0.218E-01    0.256E+01
RMM:  29    -0.107799882252E+04   -0.18295E+00   -0.51081E-02  1976   0.435E-01    0.258E+01
RMM:  30    -0.107872060914E+04   -0.72179E+00   -0.12705E-01  1961   0.728E-01    0.267E+01
RMM:  31    -0.107937594835E+04   -0.65534E+00   -0.11157E-01  1964   0.708E-01    0.262E+01
RMM:  32    -0.108049040844E+04   -0.11145E+01   -0.21300E-01  1985   0.949E-01    0.290E+01
RMM:  33    -0.108168292403E+04   -0.11925E+01   -0.34000E-01  1951   0.115E+00    0.262E+01
RMM:  34    -0.108245262151E+04   -0.76970E+00   -0.17053E-01  2112   0.808E-01    0.266E+01
RMM:  35    -0.108276188586E+04   -0.30926E+00   -0.63699E-02  2189   0.479E-01    0.268E+01
RMM:  36    -0.108286863427E+04   -0.10675E+00   -0.26414E-02  2143   0.327E-01    0.263E+01
RMM:  37    -0.108394994223E+04   -0.10813E+01   -0.24979E-01  1969   0.986E-01    0.228E+01
RMM:  38    -0.108796348768E+04   -0.40135E+01   -0.11570E+00  1931   0.189E+00    0.280E+01
RMM:  39    -0.108980993420E+04   -0.18464E+01   -0.73254E-01  2118   0.161E+00    0.279E+01
RMM:  40    -0.109028658065E+04   -0.47665E+00   -0.33224E-01  2180   0.111E+00    0.270E+01
RMM:  41    -0.109025468096E+04    0.31900E-01   -0.96115E-02  2173   0.537E-01    0.261E+01
RMM:  42    -0.109108661084E+04   -0.83193E+00   -0.23891E-01  1975   0.913E-01    0.284E+01
RMM:  43    -0.109114197263E+04   -0.55362E-01   -0.16510E-01  2104   0.812E-01    0.256E+01
RMM:  44    -0.109152073778E+04   -0.37877E+00   -0.26253E-01  1945   0.909E-01    0.226E+01
RMM:  45    -0.109232508914E+04   -0.80435E+00   -0.27993E-01  2049   0.920E-01    0.213E+01
RMM:  46    -0.109275149471E+04   -0.42641E+00   -0.19376E-01  2106   0.734E-01    0.190E+01
RMM:  47    -0.109338112354E+04   -0.62963E+00   -0.47047E-01  1961   0.131E+00    0.204E+01
RMM:  48    -0.109403853995E+04   -0.65742E+00   -0.30051E-01  2087   0.101E+00    0.223E+01
RMM:  49    -0.109411083500E+04   -0.72295E-01   -0.11243E-01  2205   0.637E-01    0.223E+01
RMM:  50    -0.109415477490E+04   -0.43940E-01   -0.37270E-02  2345   0.277E-01    0.216E+01
RMM:  51    -0.109554347280E+04   -0.13887E+01   -0.49050E-01  1940   0.129E+00    0.209E+01
RMM:  52    -0.109642321488E+04   -0.87974E+00   -0.29704E-01  2092   0.997E-01    0.231E+01
RMM:  53    -0.109622219868E+04    0.20102E+00   -0.17470E-01  2012   0.900E-01    0.185E+01
RMM:  54    -0.109654467698E+04   -0.32248E+00   -0.10706E-01  2152   0.584E-01    0.173E+01
RMM:  55    -0.109704607097E+04   -0.50139E+00   -0.95211E-02  2013   0.555E-01    0.171E+01
RMM:  56    -0.109784436557E+04   -0.79829E+00   -0.63205E-01  2003   0.151E+00    0.191E+01
RMM:  57    -0.109821337220E+04   -0.36901E+00   -0.19362E-01  2089   0.850E-01    0.188E+01
RMM:  58    -0.109844794970E+04   -0.23458E+00   -0.92230E-02  2165   0.530E-01    0.204E+01
RMM:  59    -0.109852483832E+04   -0.76889E-01   -0.30408E-02  2253   0.273E-01    0.207E+01
RMM:  60    -0.109853306080E+04   -0.82225E-02   -0.13968E-02  2244   0.181E-01    0.198E+01
RMM:  61    -0.109837129994E+04    0.16176E+00   -0.19101E-01  1986   0.907E-01    0.180E+01
RMM:  62    -0.109860208372E+04   -0.23078E+00   -0.95335E-02  1956   0.711E-01    0.145E+01
RMM:  63    -0.109880840621E+04   -0.20632E+00   -0.76056E-02  2104   0.524E-01    0.137E+01
RMM:  64    -0.109893451360E+04   -0.12611E+00   -0.46438E-02  2020   0.440E-01    0.129E+01
RMM:  65    -0.109918394586E+04   -0.24943E+00   -0.42469E-02  2194   0.365E-01    0.132E+01
RMM:  66    -0.109965256235E+04   -0.46862E+00   -0.72265E-02  1940   0.581E-01    0.134E+01
RMM:  67    -0.109966275261E+04   -0.10190E-01   -0.49514E-02  2049   0.474E-01    0.120E+01
RMM:  68    -0.109978338021E+04   -0.12063E+00   -0.32599E-02  2051   0.337E-01    0.112E+01
RMM:  69    -0.109991095317E+04   -0.12757E+00   -0.34293E-02  2220   0.296E-01    0.866E+00
RMM:  70    -0.109998046731E+04   -0.69514E-01   -0.12248E-02  2169   0.209E-01    0.878E+00
RMM:  71    -0.109984374718E+04    0.13672E+00   -0.94258E-02  1950   0.632E-01    0.121E+01
RMM:  72    -0.109979899208E+04    0.44755E-01   -0.31255E-02  1940   0.432E-01    0.108E+01
RMM:  73    -0.109979377060E+04    0.52215E-02   -0.45691E-03  2298   0.136E-01    0.107E+01
RMM:  74    -0.109982450373E+04   -0.30733E-01   -0.50162E-03  1997   0.142E-01    0.103E+01
RMM:  75    -0.109980459219E+04    0.19912E-01   -0.87856E-03  2051   0.189E-01    0.976E+00
RMM:  76    -0.109963838757E+04    0.16620E+00   -0.13112E-01  1976   0.737E-01    0.120E+01
RMM:  77    -0.109964062799E+04   -0.22404E-02   -0.46472E-02  2066   0.479E-01    0.103E+01
RMM:  78    -0.109966220719E+04   -0.21579E-01   -0.25675E-02  2084   0.338E-01    0.102E+01
RMM:  79    -0.109966998191E+04   -0.77747E-02   -0.15514E-02  2042   0.260E-01    0.110E+01
RMM:  80    -0.109966205693E+04    0.79250E-02   -0.10982E-02  1982   0.217E-01    0.103E+01
RMM:  81    -0.109991723338E+04   -0.25518E+00   -0.57966E-02  1934   0.498E-01    0.968E+00
RMM:  82    -0.109991704631E+04    0.18707E-03   -0.26915E-02  1999   0.372E-01    0.105E+01
RMM:  83    -0.110004503415E+04   -0.12799E+00   -0.17770E-02  2109   0.260E-01    0.110E+01
RMM:  84    -0.110013695068E+04   -0.91917E-01   -0.11123E-02  1992   0.236E-01    0.113E+01
RMM:  85    -0.110028028294E+04   -0.14333E+00   -0.16404E-02  1950   0.261E-01    0.115E+01
RMM:  86    -0.110042840985E+04   -0.14813E+00   -0.68247E-02  2072   0.498E-01    0.916E+00
RMM:  87    -0.110055035264E+04   -0.12194E+00   -0.44737E-02  1973   0.512E-01    0.844E+00
RMM:  88    -0.110097146986E+04   -0.42112E+00   -0.47666E-02  1939   0.401E-01    0.878E+00
RMM:  89    -0.110120730438E+04   -0.23583E+00   -0.41803E-02  2145   0.364E-01    0.854E+00
RMM:  90    -0.110133513914E+04   -0.12783E+00   -0.25216E-02  2195   0.273E-01    0.791E+00
RMM:  91    -0.110176823721E+04   -0.43310E+00   -0.74862E-02  1977   0.476E-01    0.869E+00
RMM:  92    -0.110180707380E+04   -0.38837E-01   -0.28469E-02  2060   0.347E-01    0.795E+00
RMM:  93    -0.110182989976E+04   -0.22826E-01   -0.13114E-02  2264   0.197E-01    0.786E+00
RMM:  94    -0.110188831049E+04   -0.58411E-01   -0.14387E-02  2060   0.228E-01    0.816E+00
RMM:  95    -0.110195010135E+04   -0.61791E-01   -0.13349E-02  2239   0.204E-01    0.827E+00
RMM:  96    -0.110191354046E+04    0.36561E-01   -0.37163E-02  2056   0.397E-01    0.773E+00
RMM:  97    -0.110198374068E+04   -0.70200E-01   -0.14794E-02  2107   0.263E-01    0.774E+00
RMM:  98    -0.110203934994E+04   -0.55609E-01   -0.80227E-03  2210   0.173E-01    0.808E+00
RMM:  99    -0.110205902691E+04   -0.19677E-01   -0.48070E-03  2036   0.158E-01    0.831E+00
RMM: 100    -0.110209070879E+04   -0.31682E-01   -0.22111E-03  2191   0.942E-02    0.896E+00
RMM: 101    -0.110211448056E+04   -0.23772E-01   -0.70694E-03  2076   0.173E-01    0.896E+00
RMM: 102    -0.110211417641E+04    0.30415E-03   -0.22100E-03  2119   0.956E-02    0.913E+00
RMM: 103    -0.110212457373E+04   -0.10397E-01   -0.10478E-03  2264   0.613E-02    0.958E+00
RMM: 104    -0.110212016480E+04    0.44089E-02   -0.69219E-04  1996   0.526E-02    0.987E+00
RMM: 105    -0.110214829702E+04   -0.28132E-01   -0.31966E-03  2035   0.120E-01    0.103E+01
RMM: 106    -0.110225330688E+04   -0.10501E+00   -0.20734E-02  2088   0.277E-01    0.124E+01
RMM: 107    -0.110226129999E+04   -0.79931E-02   -0.89781E-03  2064   0.205E-01    0.125E+01
RMM: 108    -0.110231760384E+04   -0.56304E-01   -0.43741E-03  2230   0.121E-01    0.127E+01
RMM: 109    -0.110231013606E+04    0.74678E-02   -0.44029E-03  2012   0.131E-01    0.125E+01
RMM: 110    -0.110235792372E+04   -0.47788E-01   -0.51912E-03  2174   0.127E-01    0.126E+01
RMM: 111    -0.110242553688E+04   -0.67613E-01   -0.30125E-02  1968   0.336E-01    0.122E+01
RMM: 112    -0.110239792867E+04    0.27608E-01   -0.55941E-03  2048   0.166E-01    0.116E+01
RMM: 113    -0.110233877506E+04    0.59154E-01   -0.41311E-03  2220   0.109E-01    0.109E+01
RMM: 114    -0.110226137144E+04    0.77404E-01   -0.63730E-03  2290   0.136E-01    0.844E+00
RMM: 115    -0.110227743121E+04   -0.16060E-01   -0.58488E-03  1978   0.179E-01    0.776E+00
RMM: 116    -0.110239752680E+04   -0.12010E+00   -0.14974E-02  2096   0.241E-01    0.947E+00
RMM: 117    -0.110238836534E+04    0.91615E-02   -0.14178E-02  2088   0.266E-01    0.803E+00
RMM: 118    -0.110242156841E+04   -0.33203E-01   -0.76922E-03  2066   0.183E-01    0.710E+00
RMM: 119    -0.110243687843E+04   -0.15310E-01   -0.48844E-03  2073   0.157E-01    0.720E+00
RMM: 120    -0.110242350863E+04    0.13370E-01   -0.91679E-03  2053   0.202E-01
   1 F= -.11095576E+04 E0= -.11095549E+04  d E =-.110956E+04  mag=    39.1050
 curvature:   0.00 expect dE= 0.000E+00 dE for cont linesearch  0.000E+00
 trial: gam= 0.00000 g(F)=  0.172E+00 g(S)=  0.752E-01 ort = 0.000E+00 (trialstep = 0.100E+01)
 search vector abs. value=  0.247E+00
 bond charge predicted
       N       E                     dE             d eps       ncg     rms          rms(c)
DAV:   1    -0.110234685362E+04    0.90025E-01   -0.68635E+01  1944   0.155E+01    0.972E+00
RMM:   2    -0.112272709874E+04   -0.20380E+02   -0.69506E+00  2029   0.604E+00    0.682E+01
RMM:   3    -0.110272907906E+04    0.19998E+02   -0.67328E+00  2062   0.544E+00    0.147E+01
RMM:   4    -0.110267910755E+04    0.49972E-01   -0.13573E+00  2117   0.234E+00    0.134E+01
RMM:   5    -0.110244342610E+04    0.23568E+00   -0.43511E-01  2152   0.135E+00    0.120E+01
RMM:   6    -0.110237790385E+04    0.65522E-01   -0.27916E-01  2086   0.116E+00    0.991E+00
RMM:   7    -0.110227768940E+04    0.10021E+00   -0.16582E-01  2076   0.882E-01    0.773E+00
RMM:   8    -0.110233917158E+04   -0.61482E-01   -0.10489E-01  2125   0.670E-01    0.515E+00
RMM:   9    -0.110235723365E+04   -0.18062E-01   -0.82117E-02  2102   0.629E-01    0.698E+00
RMM:  10    -0.110232992781E+04    0.27306E-01   -0.58944E-02  2130   0.536E-01    0.497E+00
RMM:  11    -0.110234002790E+04   -0.10100E-01   -0.54527E-02  2059   0.548E-01    0.410E+00
RMM:  12    -0.110232876507E+04    0.11263E-01   -0.24298E-02  2146   0.331E-01    0.332E+00
RMM:  13    -0.110237129756E+04   -0.42532E-01   -0.22827E-02  2132   0.307E-01    0.584E+00
RMM:  14    -0.110236120337E+04    0.10094E-01   -0.20624E-02  2066   0.339E-01    0.621E+00
RMM:  15    -0.110233185865E+04    0.29345E-01   -0.95618E-03  2144   0.197E-01    0.563E+00
RMM:  16    -0.110231287173E+04    0.18987E-01   -0.52876E-03  2248   0.135E-01    0.327E+00
RMM:  17    -0.110235399349E+04   -0.41122E-01   -0.13583E-02  2075   0.254E-01    0.375E+00
RMM:  18    -0.110239418526E+04   -0.40192E-01   -0.16251E-02  2042   0.315E-01    0.541E+00
RMM:  19    -0.110238374394E+04    0.10441E-01   -0.86831E-03  2048   0.213E-01    0.522E+00
RMM:  20    -0.110236995592E+04    0.13788E-01   -0.35981E-03  2250   0.126E-01    0.443E+00
RMM:  21    -0.110236168019E+04    0.82757E-02   -0.24318E-03  2199   0.933E-02    0.216E+00
RMM:  22    -0.110238356958E+04   -0.21889E-01   -0.39918E-03  1976   0.152E-01    0.170E+00
RMM:  23    -0.110240248138E+04   -0.18912E-01   -0.50633E-03  2019   0.165E-01    0.187E+00
RMM:  24    -0.110242618725E+04   -0.23706E-01   -0.25352E-03  2120   0.101E-01    0.282E+00
RMM:  25    -0.110242842720E+04   -0.22400E-02   -0.10192E-03  2034   0.751E-02    0.303E+00
RMM:  26    -0.110244210630E+04   -0.13679E-01   -0.14201E-03  2083   0.665E-02    0.343E+00
RMM:  27    -0.110244114625E+04    0.96005E-03   -0.11792E-03  2020   0.758E-02    0.303E+00
RMM:  28    -0.110245504510E+04   -0.13899E-01   -0.15735E-03  2165   0.686E-02    0.231E+00
RMM:  29    -0.110248996386E+04   -0.34919E-01   -0.25640E-03  2076   0.888E-02    0.201E+00
RMM:  30    -0.110251180867E+04   -0.21845E-01   -0.23621E-03  2067   0.109E-01    0.259E+00
RMM:  31    -0.110252743838E+04   -0.15630E-01   -0.21234E-03  2129   0.908E-02    0.302E+00
RMM:  32    -0.110253190542E+04   -0.44670E-02   -0.98304E-04  2225   0.503E-02    0.303E+00
RMM:  33    -0.110254499671E+04   -0.13091E-01   -0.10839E-03  2207   0.376E-02    0.306E+00
RMM:  34    -0.110254087386E+04    0.41229E-02   -0.16355E-04  1835   0.262E-02    0.320E+00
RMM:  35    -0.110253330339E+04    0.75705E-02   -0.38513E-04  1994   0.354E-02    0.323E+00
RMM:  36    -0.110253005591E+04    0.32475E-02   -0.11360E-04  2084   0.162E-02    0.319E+00
RMM:  37    -0.110251925625E+04    0.10800E-01   -0.55997E-04  2024   0.303E-02    0.301E+00
RMM:  38    -0.110250821452E+04    0.11042E-01   -0.24084E-03  2115   0.726E-02    0.201E+00
RMM:  39    -0.110250403523E+04    0.41793E-02   -0.16317E-03  2094   0.711E-02    0.159E+00
RMM:  40    -0.110250946071E+04   -0.54255E-02   -0.86081E-04  2126   0.604E-02    0.142E+00
RMM:  41    -0.110251117785E+04   -0.17171E-02   -0.14477E-03  2265   0.558E-02    0.180E+00
RMM:  42    -0.110251365781E+04   -0.24800E-02   -0.16464E-03  2174   0.621E-02    0.125E+00
RMM:  43    -0.110252752606E+04   -0.13868E-01   -0.14871E-03  2141   0.502E-02    0.121E+00
RMM:  44    -0.110253862394E+04   -0.11098E-01   -0.11763E-03  2269   0.408E-02    0.957E-01
RMM:  45    -0.110254653577E+04   -0.79118E-02   -0.12836E-03  2086   0.636E-02    0.999E-01
RMM:  46    -0.110254532563E+04    0.12101E-02   -0.28275E-04  2003   0.346E-02    0.148E+00
RMM:  47    -0.110254401128E+04    0.13143E-02   -0.24681E-04  1835   0.370E-02    0.186E+00
RMM:  48    -0.110254308650E+04    0.92478E-03   -0.17157E-04  1853   0.328E-02    0.224E+00
RMM:  49    -0.110254990220E+04   -0.68157E-02   -0.28761E-04  1928   0.305E-02    0.319E+00
RMM:  50    -0.110255396563E+04   -0.40634E-02   -0.12259E-03  1973   0.584E-02    0.344E+00
RMM:  51    -0.110256173794E+04   -0.77723E-02   -0.17744E-03  2225   0.520E-02    0.357E+00
RMM:  52    -0.110256687500E+04   -0.51371E-02   -0.19797E-03  2264   0.566E-02    0.233E+00
RMM:  53    -0.110257995134E+04   -0.13076E-01   -0.14199E-03  2152   0.630E-02    0.998E-01
RMM:  54    -0.110258978923E+04   -0.98379E-02   -0.16690E-03  1956   0.885E-02    0.134E+00
RMM:  55    -0.110259102816E+04   -0.12389E-02   -0.16338E-03  2091   0.812E-02    0.185E+00
RMM:  56    -0.110258738061E+04    0.36475E-02   -0.11370E-03  2265   0.540E-02    0.186E+00
RMM:  57    -0.110258527511E+04    0.21055E-02   -0.47436E-04  2353   0.262E-02    0.161E+00
RMM:  58    -0.110258529459E+04   -0.19480E-04   -0.67153E-05  1928   0.138E-02    0.135E+00
RMM:  59    -0.110258675049E+04   -0.14559E-02   -0.85599E-05  1921   0.178E-02    0.113E+00
RMM:  60    -0.110258817031E+04   -0.14198E-02   -0.18670E-04  2083   0.243E-02    0.996E-01
RMM:  61    -0.110258883491E+04   -0.66460E-03   -0.60527E-05  1940   0.144E-02    0.943E-01
RMM:  62    -0.110258800405E+04    0.83086E-03   -0.99612E-05  1970   0.182E-02    0.763E-01
RMM:  63    -0.110258851577E+04   -0.51172E-03   -0.32931E-05  1727   0.132E-02    0.805E-01
RMM:  64    -0.110258874166E+04   -0.22589E-03   -0.80866E-05  1920   0.174E-02    0.712E-01
RMM:  65    -0.110258905900E+04   -0.31733E-03   -0.20300E-05  1620   0.101E-02    0.820E-01
RMM:  66    -0.110258895016E+04    0.10884E-03   -0.13449E-05  1463   0.805E-03    0.750E-01
RMM:  67    -0.110258854226E+04    0.40791E-03   -0.11816E-05  1516   0.675E-03    0.769E-01
RMM:  68    -0.110258887147E+04   -0.32921E-03   -0.12100E-05  1479   0.745E-03    0.763E-01
RMM:  69    -0.110258909413E+04   -0.22266E-03   -0.11821E-05  1552   0.622E-03    0.764E-01
RMM:  70    -0.110258887061E+04    0.22352E-03   -0.87319E-05  1809   0.177E-02    0.813E-01
RMM:  71    -0.110258778119E+04    0.10894E-02   -0.28397E-04  2010   0.278E-02    0.859E-01
RMM:  72    -0.110258758252E+04    0.19868E-03   -0.80711E-05  1844   0.187E-02    0.919E-01
RMM:  73    -0.110258760819E+04   -0.25678E-04   -0.12113E-05  1495   0.586E-03    0.921E-01
RMM:  74    -0.110258724901E+04    0.35918E-03   -0.13762E-05  1555   0.568E-03    0.934E-01
RMM:  75    -0.110258719752E+04    0.51492E-04   -0.48333E-06  1234   0.469E-03    0.941E-01
RMM:  76    -0.110258723393E+04   -0.36415E-04   -0.96811E-07  1110   0.229E-03    0.945E-01
RMM:  77    -0.110258708782E+04    0.14611E-03   -0.86327E-05  1856   0.156E-02    0.102E+00
RMM:  78    -0.110258714439E+04   -0.56566E-04   -0.30190E-05  1668   0.133E-02    0.104E+00
RMM:  79    -0.110258704676E+04    0.97627E-04   -0.14564E-05  1487   0.770E-03    0.107E+00
RMM:  80    -0.110258624719E+04    0.79957E-03   -0.69058E-05  1832   0.125E-02    0.101E+00
RMM:  81    -0.110258563744E+04    0.60976E-03   -0.10756E-04  1983   0.143E-02    0.872E-01
RMM:  82    -0.110258569514E+04   -0.57697E-04   -0.11275E-04  1941   0.165E-02    0.755E-01
RMM:  83    -0.110258596268E+04   -0.26755E-03   -0.45850E-05  1803   0.139E-02    0.631E-01
RMM:  84    -0.110258607956E+04   -0.11688E-03   -0.68941E-05  1891   0.162E-02    0.509E-01
RMM:  85    -0.110258598753E+04    0.92036E-04   -0.10247E-04  1975   0.159E-02    0.463E-01
RMM:  86    -0.110258615478E+04   -0.16725E-03   -0.72292E-05  1924   0.160E-02    0.600E-01
RMM:  87    -0.110258572765E+04    0.42713E-03   -0.18570E-04  1970   0.246E-02    0.663E-01
RMM:  88    -0.110258567179E+04    0.55862E-04   -0.79407E-05  1943   0.153E-02    0.856E-01
RMM:  89    -0.110258529092E+04    0.38087E-03   -0.41819E-05  1969   0.121E-02    0.715E-01
RMM:  90    -0.110258537292E+04   -0.82001E-04   -0.15262E-05  1527   0.738E-03    0.752E-01
RMM:  91    -0.110258536460E+04    0.83162E-05   -0.94552E-06  1484   0.463E-03    0.665E-01
RMM:  92    -0.110258557118E+04   -0.20657E-03   -0.64108E-06  1377   0.621E-03    0.707E-01
RMM:  93    -0.110258557942E+04   -0.82461E-05   -0.47761E-06  1247   0.390E-03    0.625E-01
RMM:  94    -0.110258569006E+04   -0.11064E-03   -0.42495E-06  1291   0.461E-03    0.543E-01
RMM:  95    -0.110258584912E+04   -0.15906E-03   -0.68876E-06  1382   0.532E-03    0.479E-01
RMM:  96    -0.110258591376E+04   -0.64636E-04   -0.22632E-05  1661   0.744E-03    0.368E-01
RMM:  97    -0.110258605880E+04   -0.14505E-03   -0.30901E-05  1719   0.899E-03    0.362E-01
RMM:  98    -0.110258618882E+04   -0.13002E-03   -0.81842E-06  1451   0.611E-03    0.330E-01
RMM:  99    -0.110258623882E+04   -0.49997E-04   -0.70617E-06  1382   0.497E-03    0.235E-01
RMM: 100    -0.110258633750E+04   -0.98685E-04   -0.86235E-06  1468   0.596E-03    0.178E-01
RMM: 101    -0.110258638734E+04   -0.49842E-04   -0.98934E-06  1432   0.569E-03    0.131E-01
RMM: 102    -0.110258641179E+04   -0.24446E-04   -0.10806E-05  1422   0.545E-03    0.117E-01
RMM: 103    -0.110258642963E+04   -0.17837E-04   -0.59670E-06  1259   0.390E-03    0.113E-01
RMM: 104    -0.110258641520E+04    0.14429E-04   -0.47823E-06  1269   0.341E-03    0.102E-01
RMM: 105    -0.110258641723E+04   -0.20347E-05   -0.33624E-06  1179   0.284E-03    0.108E-01
RMM: 106    -0.110258640473E+04    0.12500E-04   -0.31935E-06  1179   0.257E-03    0.968E-02
RMM: 107    -0.110258636680E+04    0.37928E-04   -0.10004E-05  1505   0.432E-03    0.674E-02
RMM: 108    -0.110258637793E+04   -0.11127E-04   -0.50403E-06  1237   0.349E-03    0.758E-02
RMM: 109    -0.110258636832E+04    0.96092E-05   -0.39476E-06  1180   0.270E-03    0.579E-02
RMM: 110    -0.110258635375E+04    0.14567E-04   -0.61496E-06  1309   0.356E-03    0.483E-02
RMM: 111    -0.110258635005E+04    0.37051E-05   -0.64556E-06  1285   0.334E-03    0.448E-02
RMM: 112    -0.110258634747E+04    0.25808E-05   -0.54307E-06  1220   0.331E-03    0.340E-02
RMM: 113    -0.110258636254E+04   -0.15070E-04   -0.16880E-06  1105   0.249E-03    0.441E-02
RMM: 114    -0.110258635888E+04    0.36614E-05   -0.11549E-06  1031   0.174E-03    0.282E-02
RMM: 115    -0.110258635907E+04   -0.19197E-06   -0.14383E-06  1066   0.192E-03
   2 F= -.11097075E+04 E0= -.11096838E+04  d E =-.149920E+00  mag=    38.7246
 trial-energy change:   -0.149920  1 .order   -0.061701   -0.247230    0.123828
 step:   0.8491(harm=  0.6663)  dis= 0.03324  next Energy= -1109.716519 (dE=-0.159E+00)
 bond charge predicted
       N       E                     dE             d eps       ncg     rms          rms(c)
DAV:   1    -0.110259817722E+04   -0.11818E-01   -0.15245E+00  1968   0.231E+00    0.142E+00
RMM:   2    -0.110294702302E+04   -0.34885E+00   -0.23780E-01  2047   0.942E-01    0.945E+00
RMM:   3    -0.110264246307E+04    0.30456E+00   -0.63766E-02  2079   0.566E-01    0.500E+00
RMM:   4    -0.110263489504E+04    0.75680E-02   -0.46267E-02  2170   0.395E-01    0.680E+00
RMM:   5    -0.110258109388E+04    0.53801E-01   -0.30334E-02  2075   0.358E-01    0.282E+00
RMM:   6    -0.110261393986E+04   -0.32846E-01   -0.14396E-02  2050   0.285E-01    0.491E+00
RMM:   7    -0.110261238356E+04    0.15563E-02   -0.46514E-03  2040   0.160E-01    0.648E+00
RMM:   8    -0.110262560358E+04   -0.13220E-01   -0.40360E-03  2001   0.147E-01    0.777E+00
RMM:   9    -0.110262527307E+04    0.33051E-03   -0.28680E-03  2004   0.124E-01    0.794E+00
RMM:  10    -0.110262449872E+04    0.77435E-03   -0.26193E-03  2063   0.114E-01    0.817E+00
RMM:  11    -0.110260103796E+04    0.23461E-01   -0.33938E-03  2080   0.127E-01    0.793E+00
RMM:  12    -0.110260574132E+04   -0.47034E-02   -0.16780E-03  2141   0.929E-02    0.783E+00
RMM:  13    -0.110262374263E+04   -0.18001E-01   -0.13408E-03  2072   0.821E-02    0.804E+00
RMM:  14    -0.110263561818E+04   -0.11876E-01   -0.60475E-04  2165   0.533E-02    0.818E+00
RMM:  15    -0.110263566346E+04   -0.45272E-04   -0.12752E-04  1902   0.212E-02    0.820E+00
RMM:  16    -0.110265319881E+04   -0.17535E-01   -0.53492E-04  2133   0.447E-02    0.862E+00
RMM:  17    -0.110265293271E+04    0.26610E-03   -0.21446E-04  1937   0.324E-02    0.871E+00
RMM:  18    -0.110265772068E+04   -0.47880E-02   -0.12145E-04  1927   0.201E-02    0.884E+00
RMM:  19    -0.110265721855E+04    0.50212E-03   -0.30309E-04  1986   0.353E-02    0.878E+00
RMM:  20    -0.110266283965E+04   -0.56211E-02   -0.42046E-04  2023   0.440E-02    0.881E+00
RMM:  21    -0.110266226959E+04    0.57007E-03   -0.10221E-04  2023   0.193E-02    0.878E+00
RMM:  22    -0.110266552016E+04   -0.32506E-02   -0.81818E-05  1877   0.173E-02    0.888E+00
RMM:  23    -0.110266522254E+04    0.29761E-03   -0.43650E-05  1763   0.127E-02    0.889E+00
RMM:  24    -0.110266421210E+04    0.10104E-02   -0.25806E-05  1638   0.841E-03    0.887E+00
RMM:  25    -0.110266217111E+04    0.20410E-02   -0.74624E-05  1892   0.165E-02    0.880E+00
RMM:  26    -0.110266166459E+04    0.50652E-03   -0.15883E-04  1957   0.252E-02    0.876E+00
RMM:  27    -0.110266016103E+04    0.15036E-02   -0.87787E-05  1898   0.180E-02    0.870E+00
RMM:  28    -0.110266014822E+04    0.12815E-04   -0.53571E-05  1785   0.133E-02    0.868E+00
RMM:  29    -0.110265819180E+04    0.19564E-02   -0.10739E-04  1882   0.189E-02    0.863E+00
RMM:  30    -0.110265729883E+04    0.89297E-03   -0.51910E-05  1786   0.126E-02    0.858E+00
RMM:  31    -0.110265431460E+04    0.29842E-02   -0.11009E-04  1834   0.168E-02    0.851E+00
RMM:  32    -0.110265058031E+04    0.37343E-02   -0.19088E-04  1884   0.231E-02    0.839E+00
RMM:  33    -0.110264933104E+04    0.12493E-02   -0.15500E-04  1962   0.204E-02    0.831E+00
RMM:  34    -0.110264680905E+04    0.25220E-02   -0.24691E-04  1889   0.267E-02    0.819E+00
RMM:  35    -0.110264595472E+04    0.85433E-03   -0.23996E-04  1940   0.246E-02    0.809E+00
RMM:  36    -0.110264781996E+04   -0.18652E-02   -0.19091E-04  2058   0.218E-02    0.805E+00
RMM:  37    -0.110264781030E+04    0.96662E-05   -0.82173E-05  1941   0.160E-02    0.799E+00
RMM:  38    -0.110264587265E+04    0.19377E-02   -0.13142E-04  1931   0.186E-02    0.785E+00
RMM:  39    -0.110264629104E+04   -0.41839E-03   -0.40812E-04  1943   0.333E-02    0.766E+00
RMM:  40    -0.110264529538E+04    0.99565E-03   -0.84505E-04  2033   0.449E-02    0.735E+00
RMM:  41    -0.110264862781E+04   -0.33324E-02   -0.30882E-04  2036   0.271E-02    0.725E+00
RMM:  42    -0.110265021565E+04   -0.15878E-02   -0.71448E-05  1978   0.120E-02    0.723E+00
RMM:  43    -0.110265079519E+04   -0.57954E-03   -0.15035E-05  1441   0.564E-03    0.723E+00
RMM:  44    -0.110265016493E+04    0.63026E-03   -0.34567E-05  1839   0.100E-02    0.715E+00
RMM:  45    -0.110265063477E+04   -0.46984E-03   -0.15156E-05  1573   0.800E-03    0.714E+00
RMM:  46    -0.110264963795E+04    0.99682E-03   -0.19249E-05  1660   0.763E-03    0.710E+00
RMM:  47    -0.110265366440E+04   -0.40264E-02   -0.26337E-04  1842   0.292E-02    0.728E+00
RMM:  48    -0.110264907310E+04    0.45913E-02   -0.13018E-04  1832   0.218E-02    0.722E+00
RMM:  49    -0.110264848381E+04    0.58930E-03   -0.29175E-05  1649   0.114E-02    0.719E+00
RMM:  50    -0.110264847243E+04    0.11376E-04   -0.42716E-06  1239   0.407E-03    0.718E+00
RMM:  51    -0.110264836485E+04    0.10758E-03   -0.16200E-04  1803   0.225E-02    0.710E+00
RMM:  52    -0.110244700434E+04    0.20136E+00   -0.52243E-01  1918   0.126E+00    0.106E+01
RMM:  53    -0.110247200297E+04   -0.24999E-01   -0.70715E-02  2095   0.491E-01    0.100E+01
RMM:  54    -0.110249059426E+04   -0.18591E-01   -0.12306E-02  2451   0.149E-01    0.982E+00
RMM:  55    -0.110249113446E+04   -0.54019E-03   -0.22224E-03  2162   0.609E-02    0.969E+00
RMM:  56    -0.110254398820E+04   -0.52854E-01   -0.95369E-04  2154   0.554E-02    0.919E+00
RMM:  57    -0.110255045208E+04   -0.64639E-02   -0.18455E-02  1990   0.258E-01    0.119E+01
RMM:  58    -0.110253461545E+04    0.15837E-01   -0.54124E-03  2005   0.151E-01    0.134E+01
RMM:  59    -0.110251402845E+04    0.20587E-01   -0.39506E-03  2141   0.113E-01    0.137E+01
RMM:  60    -0.110250959081E+04    0.44376E-02   -0.85407E-04  2107   0.442E-02    0.139E+01
RMM:  61    -0.110250491433E+04    0.46765E-02   -0.15586E-04  2106   0.220E-02    0.140E+01
RMM:  62    -0.110266686610E+04   -0.16195E+00   -0.60765E-03  2056   0.143E-01    0.144E+01
RMM:  63    -0.110266549422E+04    0.13719E-02   -0.76823E-04  1982   0.548E-02    0.145E+01
RMM:  64    -0.110268545219E+04   -0.19958E-01   -0.46524E-04  2229   0.377E-02    0.146E+01
RMM:  65    -0.110268459469E+04    0.85750E-03   -0.17230E-04  1969   0.280E-02    0.147E+01
RMM:  66    -0.110269275624E+04   -0.81616E-02   -0.29533E-04  1897   0.364E-02    0.147E+01
RMM:  67    -0.110270697015E+04   -0.14214E-01   -0.15377E-03  1935   0.811E-02    0.144E+01
RMM:  68    -0.110271864826E+04   -0.11678E-01   -0.92837E-04  2054   0.711E-02    0.146E+01
RMM:  69    -0.110272402095E+04   -0.53727E-02   -0.84506E-04  2149   0.572E-02    0.150E+01
RMM:  70    -0.110272889896E+04   -0.48780E-02   -0.87797E-04  1916   0.619E-02    0.146E+01
RMM:  71    -0.110272856315E+04    0.33580E-03   -0.11435E-04  1819   0.237E-02    0.145E+01
RMM:  72    -0.110276991938E+04   -0.41356E-01   -0.31645E-03  1910   0.106E-01    0.144E+01
RMM:  73    -0.110276571539E+04    0.42040E-02   -0.53834E-04  2008   0.535E-02    0.144E+01
RMM:  74    -0.110276689425E+04   -0.11789E-02   -0.20307E-04  2207   0.246E-02    0.145E+01
RMM:  75    -0.110277030045E+04   -0.34062E-02   -0.11259E-04  1863   0.234E-02    0.146E+01
RMM:  76    -0.110277014722E+04    0.15324E-03   -0.87709E-04  1946   0.603E-02    0.144E+01
RMM:  77    -0.110276100262E+04    0.91446E-02   -0.19159E-03  2021   0.899E-02    0.142E+01
RMM:  78    -0.110275679101E+04    0.42116E-02   -0.11130E-03  2008   0.728E-02    0.139E+01
RMM:  79    -0.110275154620E+04    0.52448E-02   -0.96599E-04  2194   0.563E-02    0.134E+01
RMM:  80    -0.110271113816E+04    0.40408E-01   -0.34992E-03  2027   0.115E-01    0.119E+01
RMM:  81    -0.110268569234E+04    0.25446E-01   -0.46668E-03  2141   0.139E-01    0.102E+01
RMM:  82    -0.110251920889E+04    0.16648E+00   -0.25423E-02  2019   0.315E-01    0.880E+00
RMM:  83    -0.110251946368E+04   -0.25479E-03   -0.12059E-02  2105   0.223E-01    0.856E+00
RMM:  84    -0.110248994408E+04    0.29520E-01   -0.43022E-03  2451   0.929E-02    0.850E+00
RMM:  85    -0.110247206189E+04    0.17882E-01   -0.66493E-04  2218   0.431E-02    0.849E+00
RMM:  86    -0.110239000156E+04    0.82060E-01   -0.22367E-03  2039   0.874E-02    0.853E+00
RMM:  87    -0.110212660974E+04    0.26339E+00   -0.17837E-02  1980   0.256E-01    0.908E+00
RMM:  88    -0.110209163893E+04    0.34971E-01   -0.30574E-03  2073   0.106E-01    0.905E+00
RMM:  89    -0.110208189777E+04    0.97412E-02   -0.84626E-04  2412   0.344E-02    0.903E+00
RMM:  90    -0.110208926674E+04   -0.73690E-02   -0.10277E-04  1959   0.197E-02    0.895E+00
RMM:  91    -0.110211221317E+04   -0.22946E-01   -0.16346E-04  1878   0.237E-02    0.890E+00
RMM:  92    -0.110277468767E+04   -0.66247E+00   -0.58220E-01  2039   0.140E+00    0.128E+01
RMM:  93    -0.110278858194E+04   -0.13894E-01   -0.12715E-01  2118   0.719E-01    0.126E+01
RMM:  94    -0.110279266868E+04   -0.40867E-02   -0.56504E-02  2454   0.347E-01    0.127E+01
RMM:  95    -0.110276776501E+04    0.24904E-01   -0.21616E-02  2114   0.259E-01    0.125E+01
RMM:  96    -0.110274666570E+04    0.21099E-01   -0.71702E-02  1962   0.455E-01    0.120E+01
RMM:  97    -0.110278013028E+04   -0.33465E-01   -0.43062E-01  2068   0.126E+00    0.980E+00
RMM:  98    -0.110271589106E+04    0.64239E-01   -0.17411E-01  2088   0.933E-01    0.629E+00
RMM:  99    -0.110270090521E+04    0.14986E-01   -0.46504E-02  2255   0.377E-01    0.602E+00
RMM: 100    -0.110272670661E+04   -0.25801E-01   -0.14389E-02  2106   0.224E-01    0.593E+00
RMM: 101    -0.110275803469E+04   -0.31328E-01   -0.42775E-02  2218   0.297E-01    0.733E+00
RMM: 102    -0.110268827171E+04    0.69763E-01   -0.87268E-02  2127   0.528E-01    0.981E+00
RMM: 103    -0.110264629404E+04    0.41978E-01   -0.38318E-02  2323   0.346E-01    0.957E+00
RMM: 104    -0.110259527037E+04    0.51024E-01   -0.15168E-02  2405   0.176E-01    0.867E+00
RMM: 105    -0.110258976940E+04    0.55010E-02   -0.55465E-03  2260   0.131E-01    0.758E+00
RMM: 106    -0.110260062312E+04   -0.10854E-01   -0.25009E-03  2021   0.977E-02    0.731E+00
RMM: 107    -0.110266276876E+04   -0.62146E-01   -0.15838E-02  2034   0.228E-01    0.889E+00
RMM: 108    -0.110261886480E+04    0.43904E-01   -0.54152E-03  2048   0.158E-01    0.876E+00
RMM: 109    -0.110261000812E+04    0.88567E-02   -0.18489E-02  2134   0.203E-01    0.900E+00
RMM: 110    -0.110260924290E+04    0.76522E-03   -0.57044E-03  1992   0.169E-01    0.921E+00
RMM: 111    -0.110258430892E+04    0.24934E-01   -0.53375E-03  2117   0.118E-01    0.767E+00
RMM: 112    -0.110263074161E+04   -0.46433E-01   -0.19825E-02  2013   0.237E-01    0.844E+00
RMM: 113    -0.110263533126E+04   -0.45896E-02   -0.90513E-03  2136   0.182E-01    0.766E+00
RMM: 114    -0.110264351056E+04   -0.81793E-02   -0.25335E-03  2352   0.773E-02    0.746E+00
RMM: 115    -0.110267440531E+04   -0.30895E-01   -0.33400E-03  1998   0.997E-02    0.743E+00
RMM: 116    -0.110268240796E+04   -0.80026E-02   -0.12464E-03  2006   0.718E-02    0.738E+00
RMM: 117    -0.110269789845E+04   -0.15490E-01   -0.55718E-03  1937   0.145E-01    0.822E+00
RMM: 118    -0.110269119291E+04    0.67055E-02   -0.31918E-03  1992   0.138E-01    0.790E+00
RMM: 119    -0.110269002854E+04    0.11644E-02   -0.72750E-04  2172   0.542E-02    0.813E+00
RMM: 120    -0.110267648084E+04    0.13548E-01   -0.21889E-03  2098   0.778E-02
   3 F= -.11097995E+04 E0= -.11097828E+04  d E =-.241975E+00  mag=    38.3259
 curvature:  -0.23 expect dE=-0.126E+00 dE for cont linesearch -0.222E-01
 ZBRENT: interpolating
 opt :   0.5240  next Energy= -1109.824463 (dE=-0.267E+00)
 bond charge predicted
       N       E                     dE             d eps       ncg     rms          rms(c)
DAV:   1    -0.110268139880E+04    0.86297E-02   -0.70177E+00  2064   0.497E+00    0.809E+00
RMM:   2    -0.110607022222E+04   -0.33888E+01   -0.25052E+00  2069   0.293E+00    0.387E+01
RMM:   3    -0.110275234677E+04    0.33179E+01   -0.21616E+00  2032   0.307E+00    0.133E+01
RMM:   4    -0.110410635184E+04   -0.13540E+01   -0.90308E-01  2060   0.188E+00    0.257E+01
RMM:   5    -0.110252648851E+04    0.15799E+01   -0.39781E-01  2033   0.135E+00    0.732E+00
RMM:   6    -0.110282029741E+04   -0.29381E+00   -0.32463E-01  2034   0.114E+00    0.127E+01
RMM:   7    -0.110255128632E+04    0.26901E+00   -0.19941E-01  2120   0.901E-01    0.736E+00
RMM:   8    -0.110247672557E+04    0.74561E-01   -0.12183E-01  2080   0.731E-01    0.630E+00
RMM:   9    -0.110239474573E+04    0.81980E-01   -0.10787E-01  2135   0.633E-01    0.606E+00
RMM:  10    -0.110231853324E+04    0.76212E-01   -0.77064E-02  2116   0.593E-01    0.488E+00
RMM:  11    -0.110236495128E+04   -0.46418E-01   -0.38414E-02  2009   0.413E-01    0.549E+00
RMM:  12    -0.110237171396E+04   -0.67627E-02   -0.22428E-02  2051   0.306E-01    0.443E+00
RMM:  13    -0.110238577211E+04   -0.14058E-01   -0.10763E-02  2023   0.223E-01    0.375E+00
RMM:  14    -0.110243551102E+04   -0.49739E-01   -0.28331E-02  2044   0.326E-01    0.398E+00
RMM:  15    -0.110245067356E+04   -0.15163E-01   -0.38302E-02  2029   0.415E-01    0.411E+00
RMM:  16    -0.110247194517E+04   -0.21272E-01   -0.30268E-02  2056   0.389E-01    0.452E+00
RMM:  17    -0.110243343876E+04    0.38506E-01   -0.17979E-02  2082   0.290E-01    0.341E+00
RMM:  18    -0.110244689361E+04   -0.13455E-01   -0.11325E-02  2055   0.228E-01    0.203E+00
RMM:  19    -0.110246298300E+04   -0.16089E-01   -0.95897E-03  2034   0.218E-01    0.212E+00
RMM:  20    -0.110250862965E+04   -0.45647E-01   -0.63581E-03  2060   0.161E-01    0.137E+00
RMM:  21    -0.110252687761E+04   -0.18248E-01   -0.25427E-03  2102   0.104E-01    0.978E-01
RMM:  22    -0.110255779924E+04   -0.30922E-01   -0.17821E-03  2076   0.746E-02    0.116E+00
RMM:  23    -0.110257622617E+04   -0.18427E-01   -0.10269E-03  2125   0.625E-02    0.897E-01
RMM:  24    -0.110260734503E+04   -0.31119E-01   -0.11921E-03  2019   0.595E-02    0.973E-01
RMM:  25    -0.110263720215E+04   -0.29857E-01   -0.14111E-03  2150   0.629E-02    0.547E-01
RMM:  26    -0.110267890463E+04   -0.41702E-01   -0.20750E-03  2043   0.723E-02    0.487E-01
RMM:  27    -0.110271962868E+04   -0.40724E-01   -0.22876E-03  2219   0.600E-02    0.332E-01
RMM:  28    -0.110274938115E+04   -0.29752E-01   -0.17753E-03  2245   0.511E-02    0.265E-01
RMM:  29    -0.110276046294E+04   -0.11082E-01   -0.64281E-04  2222   0.393E-02    0.186E-01
RMM:  30    -0.110277490922E+04   -0.14446E-01   -0.73308E-04  2141   0.298E-02    0.176E-01
RMM:  31    -0.110278223914E+04   -0.73299E-02   -0.37699E-04  2096   0.285E-02    0.143E-01
RMM:  32    -0.110278533418E+04   -0.30950E-02   -0.18648E-04  2073   0.187E-02    0.103E-01
RMM:  33    -0.110278971084E+04   -0.43767E-02   -0.17092E-04  2063   0.163E-02    0.100E-01
RMM:  34    -0.110279363596E+04   -0.39251E-02   -0.17247E-04  2167   0.134E-02    0.103E-01
RMM:  35    -0.110279639554E+04   -0.27596E-02   -0.12353E-04  2123   0.115E-02    0.947E-02
RMM:  36    -0.110279833552E+04   -0.19400E-02   -0.10218E-04  2115   0.981E-03    0.841E-02
RMM:  37    -0.110279939286E+04   -0.10573E-02   -0.55538E-05  1952   0.739E-03    0.638E-02
RMM:  38    -0.110279987918E+04   -0.48632E-03   -0.26149E-05  1740   0.546E-03    0.387E-02
RMM:  39    -0.110280012301E+04   -0.24382E-03   -0.12086E-05  1627   0.433E-03    0.268E-02
RMM:  40    -0.110280033304E+04   -0.21003E-03   -0.10820E-05  1573   0.371E-03    0.203E-02
RMM:  41    -0.110280049191E+04   -0.15886E-03   -0.89243E-06  1541   0.343E-03    0.201E-02
RMM:  42    -0.110280055531E+04   -0.63404E-04   -0.36330E-06  1331   0.260E-03    0.199E-02
RMM:  43    -0.110280061239E+04   -0.57084E-04   -0.27966E-06  1253   0.228E-03    0.113E-02
RMM:  44    -0.110280066824E+04   -0.55848E-04   -0.32633E-06  1281   0.222E-03    0.463E-03
RMM:  45    -0.110280069902E+04   -0.30779E-04   -0.20030E-06  1190   0.202E-03    0.248E-03
RMM:  46    -0.110280071832E+04   -0.19298E-04   -0.14481E-06  1127   0.165E-03    0.210E-03
RMM:  47    -0.110280072799E+04   -0.96673E-05   -0.82395E-07  1055   0.141E-03    0.143E-03
RMM:  48    -0.110280073670E+04   -0.87173E-05   -0.66254E-07  1039   0.110E-03    0.170E-03
RMM:  49    -0.110280074167E+04   -0.49684E-05   -0.46079E-07  1002   0.101E-03    0.188E-03
RMM:  50    -0.110280074605E+04   -0.43822E-05   -0.39348E-07   953   0.807E-04    0.790E-04
RMM:  51    -0.110280074932E+04   -0.32639E-05   -0.30973E-07   943   0.796E-04    0.926E-04
RMM:  52    -0.110280075166E+04   -0.23449E-05   -0.26161E-07   870   0.659E-04    0.637E-04
RMM:  53    -0.110280075351E+04   -0.18453E-05   -0.21943E-07   873   0.653E-04    0.271E-04
RMM:  54    -0.110280075422E+04   -0.70838E-06   -0.16103E-07   810   0.555E-04
   4 F= -.11099280E+04 E0= -.11099077E+04  d E =-.370436E+00  mag=    37.1069
 curvature:  -0.26 expect dE=-0.584E-01 dE for cont linesearch -0.717E-02
 ZBRENT: interpolating
 opt :   0.2419  next Energy= -1109.942495 (dE=-0.385E+00)
 bond charge predicted
       N       E                     dE             d eps       ncg     rms          rms(c)
DAV:   1    -0.110279687821E+04    0.38753E-02   -0.53130E+00  1968   0.435E+00    0.144E+00
RMM:   2    -0.110294597943E+04   -0.14910E+00   -0.21159E-01  1989   0.111E+00    0.616E+00
RMM:   3    -0.110281509942E+04    0.13088E+00   -0.85285E-02  2217   0.673E-01    0.394E+00
RMM:   4    -0.110280773462E+04    0.73648E-02   -0.29458E-02  2186   0.369E-01    0.209E+00
RMM:   5    -0.110282456657E+04   -0.16832E-01   -0.18739E-02  2087   0.300E-01    0.263E+00
RMM:   6    -0.110280816279E+04    0.16404E-01   -0.99650E-03  2116   0.213E-01    0.120E+00
RMM:   7    -0.110280909669E+04   -0.93390E-03   -0.41891E-03  2173   0.123E-01    0.105E+00
RMM:   8    -0.110280906351E+04    0.33183E-04   -0.24417E-03  2199   0.103E-01    0.835E-01
RMM:   9    -0.110280852239E+04    0.54112E-03   -0.18209E-03  2080   0.951E-02    0.519E-01
RMM:  10    -0.110280881977E+04   -0.29738E-03   -0.12114E-03  2127   0.764E-02    0.487E-01
RMM:  11    -0.110280878996E+04    0.29811E-04   -0.95126E-04  2125   0.671E-02    0.485E-01
RMM:  12    -0.110280861409E+04    0.17587E-03   -0.70305E-04  2166   0.543E-02    0.464E-01
RMM:  13    -0.110280848495E+04    0.12914E-03   -0.54114E-04  2094   0.512E-02    0.340E-01
RMM:  14    -0.110280840716E+04    0.77795E-04   -0.31035E-04  2138   0.381E-02    0.274E-01
RMM:  15    -0.110280847565E+04   -0.68494E-04   -0.22476E-04  2001   0.307E-02    0.303E-01
RMM:  16    -0.110280837390E+04    0.10175E-03   -0.11728E-04  1972   0.237E-02    0.135E-01
RMM:  17    -0.110280841202E+04   -0.38121E-04   -0.71691E-05  1792   0.193E-02    0.947E-02
RMM:  18    -0.110280844644E+04   -0.34428E-04   -0.23333E-05  1616   0.113E-02    0.693E-02
RMM:  19    -0.110280845500E+04   -0.85506E-05   -0.13220E-05  1436   0.846E-03    0.538E-02
RMM:  20    -0.110280846355E+04   -0.85532E-05   -0.53021E-06  1356   0.554E-03    0.254E-02
RMM:  21    -0.110280849174E+04   -0.28196E-04   -0.35681E-06  1323   0.417E-03    0.347E-02
RMM:  22    -0.110280852715E+04   -0.35408E-04   -0.62266E-06  1361   0.539E-03    0.344E-02
RMM:  23    -0.110280856037E+04   -0.33213E-04   -0.42555E-06  1338   0.476E-03    0.225E-02
RMM:  24    -0.110280859301E+04   -0.32643E-04   -0.20071E-06  1251   0.294E-03    0.179E-02
RMM:  25    -0.110280860530E+04   -0.12289E-04   -0.12176E-06  1178   0.265E-03    0.176E-02
RMM:  26    -0.110280862563E+04   -0.20333E-04   -0.81288E-07  1119   0.195E-03    0.962E-03
RMM:  27    -0.110280865569E+04   -0.30063E-04   -0.78021E-07  1104   0.155E-03    0.849E-03
RMM:  28    -0.110280868353E+04   -0.27836E-04   -0.85249E-07  1107   0.170E-03    0.109E-02
RMM:  29    -0.110280871035E+04   -0.26822E-04   -0.89134E-07  1100   0.173E-03    0.873E-03
RMM:  30    -0.110280873983E+04   -0.29479E-04   -0.95871E-07  1099   0.149E-03    0.517E-03
RMM:  31    -0.110280875856E+04   -0.18724E-04   -0.67555E-07  1020   0.125E-03    0.248E-03
RMM:  32    -0.110280878109E+04   -0.22538E-04   -0.73334E-07  1043   0.110E-03    0.192E-03
RMM:  33    -0.110280881122E+04   -0.30130E-04   -0.11662E-06  1131   0.125E-03    0.155E-03
RMM:  34    -0.110280882835E+04   -0.17122E-04   -0.97845E-07  1050   0.122E-03    0.110E-03
RMM:  35    -0.110280883983E+04   -0.11486E-04   -0.78876E-07  1005   0.114E-03    0.812E-04
RMM:  36    -0.110280884922E+04   -0.93928E-05   -0.76579E-07  1020   0.108E-03    0.631E-04
RMM:  37    -0.110280885358E+04   -0.43508E-05   -0.55092E-07   960   0.990E-04    0.479E-04
RMM:  38    -0.110280885626E+04   -0.26815E-05   -0.43572E-07   928   0.855E-04    0.514E-04
RMM:  39    -0.110280885777E+04   -0.15153E-05   -0.32472E-07   893   0.780E-04    0.238E-04
RMM:  40    -0.110280885861E+04   -0.84035E-06   -0.24098E-07   840   0.663E-04
   5 F= -.11099398E+04 E0= -.11099198E+04  d E =-.382199E+00  mag=    37.0958
 curvature:  -0.53 expect dE=-0.455E-01 dE for cont linesearch -0.384E-05
 trial: gam= 0.35301 g(F)=  0.708E-01 g(S)=  0.151E-01 ort =-0.134E-02 (trialstep = 0.848E+00)
 search vector abs. value=  0.116E+00
 bond charge predicted
       N       E                     dE             d eps       ncg     rms          rms(c)
DAV:   1    -0.110276267853E+04    0.46179E-01   -0.26168E+01  1902   0.922E+00    0.299E+00
RMM:   2    -0.110298925738E+04   -0.22658E+00   -0.68906E-01  2068   0.191E+00    0.118E+01
RMM:   3    -0.110288384419E+04    0.10541E+00   -0.25915E-01  2279   0.106E+00    0.586E+00
RMM:   4    -0.110291567301E+04   -0.31829E-01   -0.15079E-01  2148   0.844E-01    0.761E+00
RMM:   5    -0.110282816971E+04    0.87503E-01   -0.69136E-02  2151   0.578E-01    0.390E+00
RMM:   6    -0.110283195393E+04   -0.37842E-02   -0.43699E-02  2081   0.464E-01    0.316E+00
RMM:   7    -0.110283457006E+04   -0.26161E-02   -0.20965E-02  2196   0.308E-01    0.374E+00
RMM:   8    -0.110282673446E+04    0.78356E-02   -0.15286E-02  2141   0.264E-01    0.263E+00
RMM:   9    -0.110282817575E+04   -0.14413E-02   -0.10064E-02  2056   0.228E-01    0.226E+00
RMM:  10    -0.110282593911E+04    0.22366E-02   -0.34407E-03  2113   0.122E-01    0.200E+00
RMM:  11    -0.110282615799E+04   -0.21888E-03   -0.35618E-03  2104   0.121E-01    0.168E+00
RMM:  12    -0.110282463660E+04    0.15214E-02   -0.27653E-03  2221   0.108E-01    0.989E-01
RMM:  13    -0.110282714760E+04   -0.25110E-02   -0.38457E-03  2048   0.141E-01    0.102E+00
RMM:  14    -0.110282594620E+04    0.12014E-02   -0.23523E-03  2142   0.100E-01    0.673E-01
RMM:  15    -0.110282583932E+04    0.10688E-03   -0.15388E-03  2111   0.850E-02    0.502E-01
RMM:  16    -0.110282589160E+04   -0.52280E-04   -0.96465E-04  2095   0.690E-02    0.528E-01
RMM:  17    -0.110282580823E+04    0.83364E-04   -0.66414E-04  2072   0.549E-02    0.523E-01
RMM:  18    -0.110282543368E+04    0.37455E-03   -0.31751E-04  2004   0.404E-02    0.244E-01
RMM:  19    -0.110282563197E+04   -0.19829E-03   -0.10755E-04  1950   0.239E-02    0.196E-01
RMM:  20    -0.110282573094E+04   -0.98963E-04   -0.82217E-05  1863   0.195E-02    0.175E-01
RMM:  21    -0.110282579911E+04   -0.68179E-04   -0.55242E-05  1764   0.165E-02    0.108E-01
RMM:  22    -0.110282593370E+04   -0.13459E-03   -0.26562E-05  1758   0.108E-02    0.568E-02
RMM:  23    -0.110282601789E+04   -0.84195E-04   -0.28894E-05  1652   0.115E-02    0.780E-02
RMM:  24    -0.110282605185E+04   -0.33952E-04   -0.14636E-05  1475   0.891E-03    0.397E-02
RMM:  25    -0.110282608177E+04   -0.29926E-04   -0.42957E-06  1362   0.438E-03    0.257E-02
RMM:  26    -0.110282612514E+04   -0.43369E-04   -0.35324E-06  1333   0.374E-03    0.227E-02
RMM:  27    -0.110282616152E+04   -0.36377E-04   -0.37515E-06  1328   0.409E-03    0.244E-02
RMM:  28    -0.110282622171E+04   -0.60191E-04   -0.35873E-06  1377   0.320E-03    0.222E-02
RMM:  29    -0.110282626136E+04   -0.39645E-04   -0.21265E-06  1242   0.235E-03    0.101E-02
RMM:  30    -0.110282630017E+04   -0.38812E-04   -0.20053E-06  1201   0.214E-03    0.572E-03
RMM:  31    -0.110282633408E+04   -0.33912E-04   -0.19478E-06  1216   0.200E-03    0.533E-03
RMM:  32    -0.110282635179E+04   -0.17710E-04   -0.13491E-06  1108   0.190E-03    0.539E-03
RMM:  33    -0.110282637604E+04   -0.24249E-04   -0.14134E-06  1104   0.168E-03    0.286E-03
RMM:  34    -0.110282640089E+04   -0.24849E-04   -0.16461E-06  1148   0.161E-03    0.236E-03
RMM:  35    -0.110282641760E+04   -0.16709E-04   -0.12540E-06  1082   0.148E-03    0.310E-03
RMM:  36    -0.110282644299E+04   -0.25392E-04   -0.22710E-06  1230   0.157E-03    0.211E-03
RMM:  37    -0.110282645853E+04   -0.15541E-04   -0.16699E-06  1148   0.157E-03    0.124E-03
RMM:  38    -0.110282646713E+04   -0.86044E-05   -0.11864E-06  1067   0.136E-03    0.169E-03
RMM:  39    -0.110282647366E+04   -0.65224E-05   -0.89554E-07  1022   0.123E-03    0.148E-03
RMM:  40    -0.110282647792E+04   -0.42624E-05   -0.66896E-07   971   0.108E-03    0.453E-04
RMM:  41    -0.110282648004E+04   -0.21216E-05   -0.46612E-07   953   0.949E-04    0.491E-04
RMM:  42    -0.110282648170E+04   -0.16595E-05   -0.33679E-07   893   0.784E-04    0.365E-04
RMM:  43    -0.110282648276E+04   -0.10634E-05   -0.23634E-07   870   0.695E-04    0.302E-04
RMM:  44    -0.110282648337E+04   -0.60190E-06   -0.16060E-07   805   0.576E-04
   6 F= -.11099647E+04 E0= -.11099454E+04  d E =-.249236E-01  mag=    37.0917
 trial-energy change:   -0.024924  1 .order   -0.024974   -0.072504    0.022557
 step:   0.6471(harm=  0.6471)  dis= 0.01691  next Energy= -1109.967407 (dE=-0.276E-01)
 bond charge predicted
       N       E                     dE             d eps       ncg     rms          rms(c)
DAV:   1    -0.110282758549E+04   -0.11027E-02   -0.14799E+00  1980   0.221E+00    0.716E-01
RMM:   2    -0.110284050324E+04   -0.12918E-01   -0.35879E-02  2063   0.441E-01    0.274E+00
RMM:   3    -0.110283355712E+04    0.69461E-02   -0.13989E-02  2268   0.252E-01    0.253E+00
RMM:   4    -0.110284053640E+04   -0.69793E-02   -0.13524E-02  2129   0.256E-01    0.314E+00
RMM:   5    -0.110282818796E+04    0.12348E-01   -0.77048E-03  2104   0.194E-01    0.984E-01
RMM:   6    -0.110283119178E+04   -0.30038E-02   -0.45771E-03  2025   0.154E-01    0.677E-01
RMM:   7    -0.110283115162E+04    0.40158E-04   -0.15590E-03  2134   0.779E-02    0.537E-01
RMM:   8    -0.110283096239E+04    0.18923E-03   -0.88666E-04  2125   0.653E-02    0.345E-01
RMM:   9    -0.110283092791E+04    0.34476E-04   -0.47829E-04  2080   0.494E-02    0.338E-01
RMM:  10    -0.110283086215E+04    0.65757E-04   -0.30906E-04  2095   0.369E-02    0.250E-01
RMM:  11    -0.110283083875E+04    0.23400E-04   -0.14446E-04  2117   0.278E-02    0.152E-01
RMM:  12    -0.110283088096E+04   -0.42204E-04   -0.11861E-04  1956   0.228E-02    0.160E-01
RMM:  13    -0.110283091809E+04   -0.37131E-04   -0.88165E-05  1791   0.187E-02    0.174E-01
RMM:  14    -0.110283087011E+04    0.47976E-04   -0.47385E-05  1661   0.156E-02    0.743E-02
RMM:  15    -0.110283089079E+04   -0.20675E-04   -0.22105E-05  1523   0.102E-02    0.802E-02
RMM:  16    -0.110283088616E+04    0.46291E-05   -0.10824E-05  1387   0.800E-03    0.382E-02
RMM:  17    -0.110283089477E+04   -0.86065E-05   -0.58825E-06  1362   0.552E-03    0.432E-02
RMM:  18    -0.110283089378E+04    0.98734E-06   -0.38764E-06  1300   0.478E-03
   7 F= -.11099673E+04 E0= -.11099479E+04  d E =-.275858E-01  mag=    37.0931
 curvature:  -0.44 expect dE=-0.399E-01 dE for cont linesearch -0.104E-06
 trial: gam= 1.10647 g(F)=  0.887E-01 g(S)=  0.239E-02 ort = 0.165E-03 (trialstep = 0.401E+00)
 search vector abs. value=  0.233E+00
 bond charge predicted
       N       E                     dE             d eps       ncg     rms          rms(c)
DAV:   1    -0.110280427888E+04    0.26616E-01   -0.12503E+01  1914   0.595E+00    0.196E+00
RMM:   2    -0.110285746287E+04   -0.53184E-01   -0.24568E-01  2075   0.111E+00    0.484E+00
RMM:   3    -0.110290066828E+04   -0.43205E-01   -0.10185E-01  2259   0.651E-01    0.530E+00
RMM:   4    -0.110284555552E+04    0.55113E-01   -0.55075E-02  2139   0.519E-01    0.270E+00
RMM:   5    -0.110284091985E+04    0.46357E-02   -0.20855E-02  2167   0.323E-01    0.241E+00
RMM:   6    -0.110284139356E+04   -0.47371E-03   -0.11446E-02  2184   0.220E-01    0.184E+00
RMM:   7    -0.110284050385E+04    0.88970E-03   -0.80306E-03  2125   0.202E-01    0.183E+00
RMM:   8    -0.110284013794E+04    0.36592E-03   -0.65813E-03  2112   0.179E-01    0.186E+00
RMM:   9    -0.110283886728E+04    0.12707E-02   -0.43712E-03  2092   0.145E-01    0.165E+00
RMM:  10    -0.110283575824E+04    0.31090E-02   -0.23493E-03  2115   0.102E-01    0.591E-01
RMM:  11    -0.110283822640E+04   -0.24682E-02   -0.20845E-03  2067   0.978E-02    0.780E-01
RMM:  12    -0.110283762133E+04    0.60508E-03   -0.11272E-03  2109   0.682E-02    0.529E-01
RMM:  13    -0.110283751965E+04    0.10167E-03   -0.71455E-04  2061   0.616E-02    0.403E-01
RMM:  14    -0.110283742412E+04    0.95538E-04   -0.36343E-04  2095   0.410E-02    0.234E-01
RMM:  15    -0.110283758872E+04   -0.16461E-03   -0.18976E-04  2016   0.299E-02    0.174E-01
RMM:  16    -0.110283763846E+04   -0.49737E-04   -0.10264E-04  1854   0.222E-02    0.152E-01
RMM:  17    -0.110283769266E+04   -0.54195E-04   -0.56615E-05  1738   0.161E-02    0.138E-01
RMM:  18    -0.110283768249E+04    0.10162E-04   -0.30385E-05  1549   0.123E-02    0.636E-02
RMM:  19    -0.110283771778E+04   -0.35284E-04   -0.12394E-05  1456   0.821E-03    0.727E-02
RMM:  20    -0.110283774650E+04   -0.28721E-04   -0.14540E-05  1463   0.821E-03    0.778E-02
RMM:  21    -0.110283779082E+04   -0.44317E-04   -0.11804E-05  1502   0.766E-03    0.358E-02
RMM:  22    -0.110283785070E+04   -0.59885E-04   -0.55637E-06  1442   0.446E-03    0.170E-02
RMM:  23    -0.110283787734E+04   -0.26635E-04   -0.35857E-06  1328   0.412E-03    0.234E-02
RMM:  24    -0.110283788742E+04   -0.10080E-04   -0.22737E-06  1262   0.355E-03    0.163E-02
RMM:  25    -0.110283791185E+04   -0.24435E-04   -0.15712E-06  1187   0.241E-03    0.133E-02
RMM:  26    -0.110283793648E+04   -0.24630E-04   -0.14003E-06  1163   0.209E-03    0.841E-03
RMM:  27    -0.110283795250E+04   -0.16017E-04   -0.13682E-06  1175   0.220E-03    0.999E-03
RMM:  28    -0.110283796971E+04   -0.17207E-04   -0.11910E-06  1136   0.196E-03    0.436E-03
RMM:  29    -0.110283799382E+04   -0.24112E-04   -0.15928E-06  1177   0.164E-03    0.312E-03
RMM:  30    -0.110283800831E+04   -0.14488E-04   -0.99807E-07  1057   0.151E-03    0.254E-03
RMM:  31    -0.110283802086E+04   -0.12553E-04   -0.97415E-07  1069   0.143E-03    0.448E-03
RMM:  32    -0.110283803142E+04   -0.10560E-04   -0.83070E-07  1048   0.145E-03    0.222E-03
RMM:  33    -0.110283804706E+04   -0.15640E-04   -0.12004E-06  1091   0.126E-03    0.208E-03
RMM:  34    -0.110283805534E+04   -0.82805E-05   -0.78180E-07  1019   0.127E-03    0.134E-03
RMM:  35    -0.110283806564E+04   -0.10295E-04   -0.96770E-07  1040   0.108E-03    0.836E-04
RMM:  36    -0.110283807449E+04   -0.88527E-05   -0.93018E-07  1079   0.125E-03    0.840E-04
RMM:  37    -0.110283807781E+04   -0.33180E-05   -0.60809E-07   955   0.980E-04    0.782E-04
RMM:  38    -0.110283808078E+04   -0.29697E-05   -0.46807E-07   957   0.933E-04    0.561E-04
RMM:  39    -0.110283808266E+04   -0.18886E-05   -0.35401E-07   881   0.779E-04    0.273E-04
RMM:  40    -0.110283808362E+04   -0.95079E-06   -0.24108E-07   861   0.703E-04
   8 F= -.11099785E+04 E0= -.11099592E+04  d E =-.111227E-01  mag=    37.0966
 trial-energy change:   -0.011123  1 .order   -0.011187   -0.036623    0.014250
 step:   0.2882(harm=  0.2888)  dis= 0.01124  next Energy= -1109.980473 (dE=-0.131E-01)
 bond charge predicted
       N       E                     dE             d eps       ncg     rms          rms(c)
DAV:   1    -0.110283864772E+04   -0.56505E-03   -0.99429E-01  2028   0.168E+00    0.558E-01
RMM:   2    -0.110284238971E+04   -0.37420E-02   -0.18282E-02  2055   0.311E-01    0.141E+00
RMM:   3    -0.110284877804E+04   -0.63883E-02   -0.77334E-03  2263   0.182E-01    0.289E+00
RMM:   4    -0.110284063008E+04    0.81480E-02   -0.79575E-03  2100   0.199E-01    0.135E+00
RMM:   5    -0.110284103656E+04   -0.40649E-03   -0.32464E-03  2100   0.134E-01    0.783E-01
RMM:   6    -0.110284114853E+04   -0.11197E-03   -0.16718E-03  2045   0.934E-02    0.426E-01
RMM:   7    -0.110284171895E+04   -0.57042E-03   -0.10044E-03  2142   0.630E-02    0.573E-01
RMM:   8    -0.110284122322E+04    0.49573E-03   -0.63065E-04  2108   0.544E-02    0.308E-01
RMM:   9    -0.110284126637E+04   -0.43141E-04   -0.36124E-04  2091   0.415E-02    0.343E-01
RMM:  10    -0.110284111993E+04    0.14643E-03   -0.24543E-04  2039   0.324E-02    0.158E-01
RMM:  11    -0.110284118056E+04   -0.60631E-04   -0.10610E-04  1934   0.241E-02    0.139E-01
RMM:  12    -0.110284118391E+04   -0.33473E-05   -0.71963E-05  1755   0.180E-02    0.127E-01
RMM:  13    -0.110284118231E+04    0.16013E-05   -0.44943E-05  1697   0.148E-02    0.100E-01
RMM:  14    -0.110284117295E+04    0.93565E-05   -0.23153E-05  1453   0.114E-02    0.587E-02
RMM:  15    -0.110284118333E+04   -0.10376E-04   -0.14396E-05  1418   0.813E-03    0.741E-02
RMM:  16    -0.110284117603E+04    0.73042E-05   -0.73625E-06  1358   0.680E-03    0.261E-02
RMM:  17    -0.110284118375E+04   -0.77262E-05   -0.36785E-06  1299   0.441E-03    0.294E-02
RMM:  18    -0.110284118458E+04   -0.82296E-06   -0.21617E-06  1239   0.370E-03
   9 F= -.11099804E+04 E0= -.11099611E+04  d E =-.131069E-01  mag=    37.0965
 curvature:  -0.37 expect dE=-0.445E-01 dE for cont linesearch -0.172E-07
 trial: gam= 1.31862 g(F)=  0.118E+00 g(S)=  0.291E-02 ort = 0.104E-03 (trialstep = 0.168E+00)
 search vector abs. value=  0.526E+00
 bond charge predicted
       N       E                     dE             d eps       ncg     rms          rms(c)
DAV:   1    -0.110283580730E+04    0.53765E-02   -0.48786E+00  1920   0.379E+00    0.116E+00
RMM:   2    -0.110285169006E+04   -0.15883E-01   -0.83446E-02  2126   0.661E-01    0.243E+00
RMM:   3    -0.110288708309E+04   -0.35393E-01   -0.36822E-02  2267   0.397E-01    0.443E+00
RMM:   4    -0.110285099341E+04    0.36090E-01   -0.24122E-02  2160   0.344E-01    0.183E+00
RMM:   5    -0.110285030327E+04    0.69014E-03   -0.93252E-03  2120   0.225E-01    0.137E+00
RMM:   6    -0.110285183655E+04   -0.15333E-02   -0.37108E-03  2169   0.126E-01    0.147E+00
RMM:   7    -0.110285066945E+04    0.11671E-02   -0.31808E-03  2162   0.121E-01    0.103E+00
RMM:   8    -0.110285056654E+04    0.10290E-03   -0.27866E-03  2108   0.123E-01    0.851E-01
RMM:   9    -0.110285106416E+04   -0.49761E-03   -0.16887E-03  2114   0.875E-02    0.104E+00
RMM:  10    -0.110284963425E+04    0.14299E-02   -0.91263E-04  2115   0.677E-02    0.402E-01
RMM:  11    -0.110285043378E+04   -0.79952E-03   -0.66527E-04  2023   0.557E-02    0.442E-01
RMM:  12    -0.110285033456E+04    0.99213E-04   -0.34554E-04  2081   0.372E-02    0.287E-01
RMM:  13    -0.110285029695E+04    0.37608E-04   -0.20668E-04  1996   0.330E-02    0.181E-01
RMM:  14    -0.110285031629E+04   -0.19338E-04   -0.10546E-04  1911   0.218E-02    0.126E-01
RMM:  15    -0.110285036040E+04   -0.44104E-04   -0.59106E-05  1784   0.170E-02    0.106E-01
RMM:  16    -0.110285036364E+04   -0.32455E-05   -0.31840E-05  1560   0.127E-02    0.749E-02
RMM:  17    -0.110285038094E+04   -0.17297E-04   -0.17499E-05  1440   0.932E-03    0.626E-02
RMM:  18    -0.110285038070E+04    0.24005E-06   -0.77844E-06  1386   0.692E-03
  10 F= -.11099911E+04 E0= -.11099717E+04  d E =-.106611E-01  mag=    37.0991
 trial-energy change:   -0.010661  1 .order   -0.010723   -0.020240   -0.001207
 step:   0.1787(harm=  0.1784)  dis= 0.01001  next Energy= -1109.991150 (dE=-0.107E-01)
 bond charge predicted
       N       E                     dE             d eps       ncg     rms          rms(c)
DAV:   1    -0.110285026878E+04    0.11216E-03   -0.20501E-02  2112   0.246E-01    0.833E-02
RMM:   2    -0.110285070185E+04   -0.43307E-03   -0.45890E-04  2111   0.503E-02    0.630E-01
RMM:   3    -0.110285002015E+04    0.68170E-03   -0.25368E-04  2133   0.362E-02    0.844E-02
RMM:   4    -0.110285041147E+04   -0.39132E-03   -0.16579E-04  1949   0.308E-02    0.209E-01
RMM:   5    -0.110285032700E+04    0.84473E-04   -0.54189E-05  1739   0.174E-02    0.121E-01
RMM:   6    -0.110285033737E+04   -0.10371E-04   -0.27886E-05  1589   0.127E-02    0.917E-02
RMM:   7    -0.110285035291E+04   -0.15534E-04   -0.18629E-05  1455   0.933E-03    0.925E-02
RMM:   8    -0.110285035102E+04    0.18829E-05   -0.11874E-05  1428   0.861E-03    0.327E-02
RMM:   9    -0.110285036620E+04   -0.15177E-04   -0.78931E-06  1351   0.636E-03    0.492E-02
RMM:  10    -0.110285036605E+04    0.14609E-06   -0.39228E-06  1275   0.484E-03
  11 F= -.11099912E+04 E0= -.11099718E+04  d E =-.107424E-01  mag=    37.0990
 curvature:  -0.39 expect dE=-0.124E-01 dE for cont linesearch -0.793E-07
 trial: gam= 0.25168 g(F)=  0.289E-01 g(S)=  0.296E-02 ort = 0.328E-03 (trialstep = 0.170E+00)
 search vector abs. value=  0.653E-01
 bond charge predicted
       N       E                     dE             d eps       ncg     rms          rms(c)
DAV:   1    -0.110285386670E+04   -0.35005E-02   -0.54483E-01  1908   0.143E+00    0.334E-01
RMM:   2    -0.110285598852E+04   -0.21218E-02   -0.10004E-02  2188   0.241E-01    0.860E-01
RMM:   3    -0.110285714472E+04   -0.11562E-02   -0.33454E-03  2286   0.126E-01    0.127E+00
RMM:   4    -0.110285606433E+04    0.10804E-02   -0.22628E-03  2180   0.109E-01    0.873E-01
RMM:   5    -0.110285525236E+04    0.81197E-03   -0.10169E-03  2080   0.741E-02    0.353E-01
RMM:   6    -0.110285554084E+04   -0.28848E-03   -0.36129E-04  2026   0.415E-02    0.326E-01
RMM:   7    -0.110285563658E+04   -0.95743E-04   -0.28728E-04  2101   0.365E-02    0.276E-01
RMM:   8    -0.110285558512E+04    0.51464E-04   -0.17494E-04  2120   0.279E-02    0.165E-01
RMM:   9    -0.110285559259E+04   -0.74691E-05   -0.10719E-04  1964   0.220E-02    0.155E-01
RMM:  10    -0.110285558490E+04    0.76832E-05   -0.83038E-05  1901   0.201E-02    0.103E-01
RMM:  11    -0.110285560002E+04   -0.15117E-04   -0.49849E-05  1796   0.160E-02    0.848E-02
RMM:  12    -0.110285559446E+04    0.55551E-05   -0.24755E-05  1528   0.115E-02    0.643E-02
RMM:  13    -0.110285560268E+04   -0.82183E-05   -0.13234E-05  1400   0.795E-03    0.753E-02
RMM:  14    -0.110285559693E+04    0.57537E-05   -0.67052E-06  1338   0.625E-03    0.300E-02
RMM:  15    -0.110285560479E+04   -0.78595E-05   -0.20989E-06  1257   0.353E-03    0.250E-02
RMM:  16    -0.110285560704E+04   -0.22535E-05   -0.10772E-06  1164   0.261E-03    0.156E-02
RMM:  17    -0.110285561418E+04   -0.71361E-05   -0.70642E-07  1137   0.193E-03    0.995E-03
RMM:  18    -0.110285562111E+04   -0.69317E-05   -0.10866E-06  1167   0.229E-03    0.204E-02
RMM:  19    -0.110285562463E+04   -0.35239E-05   -0.72843E-07  1107   0.207E-03    0.648E-03
RMM:  20    -0.110285562769E+04   -0.30570E-05   -0.30601E-07  1031   0.130E-03    0.683E-03
RMM:  21    -0.110285562964E+04   -0.19527E-05   -0.19118E-07   956   0.109E-03    0.289E-03
RMM:  22    -0.110285563309E+04   -0.34495E-05   -0.10048E-07   882   0.621E-04    0.246E-03
RMM:  23    -0.110285563734E+04   -0.42500E-05   -0.10996E-07   897   0.688E-04    0.348E-03
RMM:  24    -0.110285564132E+04   -0.39799E-05   -0.11443E-07   904   0.707E-04    0.245E-03
RMM:  25    -0.110285564633E+04   -0.50100E-05   -0.10921E-07   875   0.581E-04    0.161E-03
RMM:  26    -0.110285565017E+04   -0.38363E-05   -0.97348E-08   832   0.536E-04    0.108E-03
RMM:  27    -0.110285565243E+04   -0.22603E-05   -0.80935E-08   778   0.501E-04    0.127E-03
RMM:  28    -0.110285565552E+04   -0.30945E-05   -0.85305E-08   803   0.473E-04    0.499E-04
RMM:  29    -0.110285565995E+04   -0.44309E-05   -0.12021E-07   860   0.475E-04    0.662E-04
RMM:  30    -0.110285566303E+04   -0.30777E-05   -0.11876E-07   854   0.503E-04    0.552E-04
RMM:  31    -0.110285566408E+04   -0.10523E-05   -0.81779E-08   735   0.451E-04    0.493E-04
RMM:  32    -0.110285566565E+04   -0.15625E-05   -0.74466E-08   674   0.413E-04    0.247E-04
RMM:  33    -0.110285566773E+04   -0.20809E-05   -0.95208E-08   759   0.438E-04    0.284E-04
RMM:  34    -0.110285566906E+04   -0.13333E-05   -0.93385E-08   794   0.455E-04    0.209E-04
RMM:  35    -0.110285566984E+04   -0.78091E-06   -0.78404E-08   716   0.423E-04
  12 F= -.11099959E+04 E0= -.11099766E+04  d E =-.471280E-02  mag=    37.0971
 trial-energy change:   -0.004713  1 .order   -0.004666   -0.005421   -0.003911
 step:   0.4623(harm=  0.6103)  dis= 0.00659  next Energy= -1109.999507 (dE=-0.831E-02)
 bond charge predicted
       N       E                     dE             d eps       ncg     rms          rms(c)
DAV:   1    -0.110285594486E+04   -0.27580E-03   -0.16119E+00  1962   0.246E+00    0.572E-01
RMM:   2    -0.110286240039E+04   -0.64555E-02   -0.29754E-02  2191   0.415E-01    0.147E+00
RMM:   3    -0.110286555810E+04   -0.31577E-02   -0.98089E-03  2280   0.215E-01    0.213E+00
RMM:   4    -0.110286511654E+04    0.44155E-03   -0.71328E-03  2185   0.180E-01    0.167E+00
RMM:   5    -0.110286132666E+04    0.37899E-02   -0.39046E-03  2119   0.141E-01    0.124E+00
RMM:   6    -0.110286008469E+04    0.12420E-02   -0.18714E-03  2059   0.969E-02    0.326E-01
RMM:   7    -0.110286150030E+04   -0.14156E-02   -0.99940E-04  2107   0.657E-02    0.609E-01
RMM:   8    -0.110286092937E+04    0.57093E-03   -0.45287E-04  2207   0.455E-02    0.233E-01
RMM:   9    -0.110286121799E+04   -0.28861E-03   -0.35646E-04  2110   0.394E-02    0.351E-01
RMM:  10    -0.110286106180E+04    0.15619E-03   -0.25296E-04  2162   0.344E-02    0.199E-01
RMM:  11    -0.110286109356E+04   -0.31760E-04   -0.15740E-04  1971   0.271E-02    0.169E-01
RMM:  12    -0.110286108120E+04    0.12356E-04   -0.10439E-04  1940   0.214E-02    0.134E-01
RMM:  13    -0.110286106847E+04    0.12729E-04   -0.55500E-05  1746   0.171E-02    0.130E-01
RMM:  14    -0.110286104811E+04    0.20365E-04   -0.22800E-05  1517   0.110E-02    0.914E-02
RMM:  15    -0.110286105685E+04   -0.87370E-05   -0.13418E-05  1403   0.799E-03    0.788E-02
RMM:  16    -0.110286106114E+04   -0.42934E-05   -0.82593E-06  1366   0.662E-03    0.244E-02
RMM:  17    -0.110286108121E+04   -0.20071E-04   -0.48014E-06  1324   0.480E-03    0.321E-02
RMM:  18    -0.110286108633E+04   -0.51217E-05   -0.27307E-06  1260   0.409E-03    0.223E-02
RMM:  19    -0.110286109182E+04   -0.54930E-05   -0.77606E-07  1139   0.226E-03    0.102E-02
RMM:  20    -0.110286109895E+04   -0.71284E-05   -0.46421E-07  1096   0.161E-03    0.833E-03
RMM:  21    -0.110286110345E+04   -0.44989E-05   -0.35036E-07  1043   0.143E-03    0.552E-03
RMM:  22    -0.110286111600E+04   -0.12544E-04   -0.29921E-07  1074   0.105E-03    0.438E-03
RMM:  23    -0.110286112542E+04   -0.94286E-05   -0.27465E-07  1034   0.104E-03    0.548E-03
RMM:  24    -0.110286112784E+04   -0.24170E-05   -0.19139E-07   958   0.955E-04    0.422E-03
RMM:  25    -0.110286113153E+04   -0.36867E-05   -0.11213E-07   858   0.613E-04    0.256E-03
RMM:  26    -0.110286113795E+04   -0.64255E-05   -0.12241E-07   892   0.569E-04    0.171E-03
RMM:  27    -0.110286114248E+04   -0.45262E-05   -0.11665E-07   877   0.626E-04    0.192E-03
RMM:  28    -0.110286114938E+04   -0.69030E-05   -0.14963E-07   881   0.577E-04    0.114E-03
RMM:  29    -0.110286115540E+04   -0.60175E-05   -0.14482E-07   875   0.572E-04    0.968E-04
RMM:  30    -0.110286115978E+04   -0.43787E-05   -0.14374E-07   841   0.524E-04    0.763E-04
RMM:  31    -0.110286116259E+04   -0.28109E-05   -0.11851E-07   835   0.527E-04    0.967E-04
RMM:  32    -0.110286116562E+04   -0.30300E-05   -0.11493E-07   778   0.480E-04    0.385E-04
RMM:  33    -0.110286116981E+04   -0.41945E-05   -0.13747E-07   812   0.500E-04    0.491E-04
RMM:  34    -0.110286117281E+04   -0.29913E-05   -0.14609E-07   844   0.512E-04    0.336E-04
RMM:  35    -0.110286117502E+04   -0.22114E-05   -0.14065E-07   829   0.507E-04    0.238E-04
RMM:  36    -0.110286117636E+04   -0.13398E-05   -0.12551E-07   788   0.485E-04    0.203E-04
RMM:  37    -0.110286117721E+04   -0.85784E-06   -0.10552E-07   742   0.461E-04
  13 F= -.11100004E+04 E0= -.11099813E+04  d E =-.920691E-02  mag=    37.0935
 curvature:  -0.55 expect dE=-0.881E-02 dE for cont linesearch -0.510E-03
 ZBRENT: increasing intervall
 opt :   1.0470  next Energy= -1109.996011 (dE=-0.482E-02)
 bond charge predicted
       N       E                     dE             d eps       ncg     rms          rms(c)
DAV:   1    -0.110283760593E+04    0.23570E-01   -0.64460E+00  1896   0.493E+00    0.115E+00
RMM:   2    -0.110286414273E+04   -0.26537E-01   -0.12216E-01  2190   0.836E-01    0.294E+00
RMM:   3    -0.110287254105E+04   -0.83983E-02   -0.39951E-02  2280   0.428E-01    0.376E+00
RMM:   4    -0.110287610327E+04   -0.35622E-02   -0.26942E-02  2213   0.339E-01    0.280E+00
RMM:   5    -0.110286648908E+04    0.96142E-02   -0.15533E-02  2119   0.274E-01    0.280E+00
RMM:   6    -0.110285527162E+04    0.11217E-01   -0.87290E-03  2111   0.205E-01    0.914E-01
RMM:   7    -0.110286015323E+04   -0.48816E-02   -0.48985E-03  2078   0.145E-01    0.130E+00
RMM:   8    -0.110285806552E+04    0.20877E-02   -0.20562E-03  2240   0.928E-02    0.628E-01
RMM:   9    -0.110285858874E+04   -0.52322E-03   -0.13794E-03  2083   0.792E-02    0.642E-01
RMM:  10    -0.110285854553E+04    0.43208E-04   -0.95694E-04  2219   0.620E-02    0.445E-01
RMM:  11    -0.110285855329E+04   -0.77587E-05   -0.75079E-04  2120   0.544E-02    0.369E-01
RMM:  12    -0.110285870558E+04   -0.15229E-03   -0.66845E-04  2142   0.542E-02    0.442E-01
RMM:  13    -0.110285843352E+04    0.27206E-03   -0.35440E-04  2088   0.434E-02    0.336E-01
RMM:  14    -0.110285839891E+04    0.34615E-04   -0.18676E-04  2018   0.287E-02    0.271E-01
RMM:  15    -0.110285842142E+04   -0.22516E-04   -0.12860E-04  1918   0.237E-02    0.177E-01
RMM:  16    -0.110285846457E+04   -0.43146E-04   -0.67871E-05  1823   0.180E-02    0.822E-02
RMM:  17    -0.110285850871E+04   -0.44143E-04   -0.26542E-05  1678   0.117E-02    0.723E-02
RMM:  18    -0.110285850966E+04   -0.94545E-06   -0.11224E-05  1425   0.754E-03    0.334E-02
RMM:  19    -0.110285853190E+04   -0.22241E-04   -0.37507E-06  1311   0.439E-03    0.226E-02
RMM:  20    -0.110285855224E+04   -0.20344E-04   -0.22888E-06  1268   0.366E-03    0.184E-02
RMM:  21    -0.110285856651E+04   -0.14267E-04   -0.12970E-06  1205   0.278E-03    0.121E-02
RMM:  22    -0.110285860057E+04   -0.34064E-04   -0.98496E-07  1158   0.194E-03    0.117E-02
RMM:  23    -0.110285862620E+04   -0.25632E-04   -0.11773E-06  1182   0.230E-03    0.128E-02
RMM:  24    -0.110285864260E+04   -0.16399E-04   -0.87859E-07  1139   0.208E-03    0.719E-03
RMM:  25    -0.110285865665E+04   -0.14046E-04   -0.48278E-07  1068   0.130E-03    0.606E-03
RMM:  26    -0.110285866866E+04   -0.12005E-04   -0.35623E-07   994   0.106E-03    0.527E-03
RMM:  27    -0.110285868143E+04   -0.12777E-04   -0.34569E-07   978   0.106E-03    0.540E-03
RMM:  28    -0.110285870819E+04   -0.26756E-04   -0.56648E-07  1075   0.107E-03    0.335E-03
RMM:  29    -0.110285873446E+04   -0.26275E-04   -0.66855E-07  1065   0.106E-03    0.261E-03
RMM:  30    -0.110285874671E+04   -0.12252E-04   -0.47291E-07   988   0.102E-03    0.304E-03
RMM:  31    -0.110285875826E+04   -0.11548E-04   -0.41362E-07   936   0.897E-04    0.152E-03
RMM:  32    -0.110285877748E+04   -0.19219E-04   -0.57702E-07  1024   0.876E-04    0.120E-03
RMM:  33    -0.110285879152E+04   -0.14042E-04   -0.55109E-07  1004   0.903E-04    0.857E-04
RMM:  34    -0.110285880336E+04   -0.11834E-04   -0.58536E-07   986   0.857E-04    0.811E-04
RMM:  35    -0.110285881470E+04   -0.11347E-04   -0.67854E-07  1017   0.928E-04    0.563E-04
RMM:  36    -0.110285881973E+04   -0.50268E-05   -0.50058E-07   981   0.871E-04    0.496E-04
RMM:  37    -0.110285882297E+04   -0.32370E-05   -0.40035E-07   912   0.785E-04    0.356E-04
RMM:  38    -0.110285882457E+04   -0.16045E-05   -0.29965E-07   878   0.708E-04    0.293E-04
RMM:  39    -0.110285882513E+04   -0.55856E-06   -0.19602E-07   779   0.597E-04
  14 F= -.11099960E+04 E0= -.11099771E+04  d E =-.484112E-02  mag=    37.0863
 curvature:   4.77 expect dE= 0.417E+00 dE for cont linesearch  0.376E-01
 ZBRENT: bracketing found
 ZBRENT: interpolating
 opt :   0.6112  next Energy= -1110.000976 (dE=-0.978E-02)
 bond charge predicted
       N       E                     dE             d eps       ncg     rms          rms(c)
DAV:   1    -0.110285068269E+04    0.81419E-02   -0.35824E+00  1962   0.367E+00    0.852E-01
RMM:   2    -0.110286550121E+04   -0.14819E-01   -0.65133E-02  2194   0.612E-01    0.232E+00
RMM:   3    -0.110286929027E+04   -0.37891E-02   -0.21005E-02  2298   0.310E-01    0.220E+00
RMM:   4    -0.110286816051E+04    0.11298E-02   -0.11553E-02  2228   0.236E-01    0.214E+00
RMM:   5    -0.110286153605E+04    0.66245E-02   -0.53334E-03  2162   0.161E-01    0.140E+00
RMM:   6    -0.110286091774E+04    0.61831E-03   -0.33622E-03  2081   0.127E-01    0.436E-01
RMM:   7    -0.110286309061E+04   -0.21729E-02   -0.18473E-03  2150   0.885E-02    0.904E-01
RMM:   8    -0.110286182107E+04    0.12695E-02   -0.10547E-03  2172   0.646E-02    0.497E-01
RMM:   9    -0.110286201108E+04   -0.19001E-03   -0.68676E-04  2082   0.556E-02    0.379E-01
RMM:  10    -0.110286202452E+04   -0.13441E-04   -0.55047E-04  2152   0.506E-02    0.281E-01
RMM:  11    -0.110286207171E+04   -0.47188E-04   -0.34475E-04  2136   0.388E-02    0.272E-01
RMM:  12    -0.110286208923E+04   -0.17520E-04   -0.22367E-04  2024   0.321E-02    0.240E-01
RMM:  13    -0.110286212581E+04   -0.36579E-04   -0.14695E-04  2036   0.257E-02    0.250E-01
RMM:  14    -0.110286206839E+04    0.57416E-04   -0.80118E-05  1818   0.198E-02    0.166E-01
RMM:  15    -0.110286209028E+04   -0.21888E-04   -0.42159E-05  1676   0.133E-02    0.126E-01
RMM:  16    -0.110286210509E+04   -0.14810E-04   -0.24200E-05  1534   0.109E-02    0.338E-02
RMM:  17    -0.110286215301E+04   -0.47920E-04   -0.13449E-05  1459   0.830E-03    0.538E-02
RMM:  18    -0.110286215768E+04   -0.46651E-05   -0.64867E-06  1349   0.628E-03    0.285E-02
RMM:  19    -0.110286217259E+04   -0.14919E-04   -0.19048E-06  1210   0.325E-03    0.146E-02
RMM:  20    -0.110286218221E+04   -0.96180E-05   -0.11049E-06  1164   0.265E-03    0.138E-02
RMM:  21    -0.110286218821E+04   -0.59981E-05   -0.66601E-07  1131   0.203E-03    0.682E-03
RMM:  22    -0.110286220313E+04   -0.14924E-04   -0.42285E-07  1101   0.140E-03    0.786E-03
RMM:  23    -0.110286221687E+04   -0.13735E-04   -0.48165E-07  1107   0.153E-03    0.756E-03
RMM:  24    -0.110286222259E+04   -0.57180E-05   -0.40749E-07  1036   0.150E-03    0.544E-03
RMM:  25    -0.110286222739E+04   -0.48058E-05   -0.20687E-07   978   0.978E-04    0.367E-03
RMM:  26    -0.110286223237E+04   -0.49811E-05   -0.14349E-07   960   0.711E-04    0.294E-03
RMM:  27    -0.110286223712E+04   -0.47499E-05   -0.14027E-07   898   0.741E-04    0.369E-03
RMM:  28    -0.110286224259E+04   -0.54655E-05   -0.13537E-07   910   0.718E-04    0.142E-03
RMM:  29    -0.110286224979E+04   -0.72038E-05   -0.15200E-07   932   0.584E-04    0.154E-03
RMM:  30    -0.110286225385E+04   -0.40582E-05   -0.12318E-07   884   0.590E-04    0.133E-03
RMM:  31    -0.110286225594E+04   -0.20845E-05   -0.98578E-08   801   0.522E-04    0.112E-03
RMM:  32    -0.110286225901E+04   -0.30707E-05   -0.99035E-08   832   0.498E-04    0.641E-04
RMM:  33    -0.110286226212E+04   -0.31088E-05   -0.10891E-07   842   0.480E-04    0.481E-04
RMM:  34    -0.110286226443E+04   -0.23149E-05   -0.10796E-07   864   0.492E-04    0.337E-04
RMM:  35    -0.110286226612E+04   -0.16910E-05   -0.10660E-07   836   0.473E-04    0.241E-04
RMM:  36    -0.110286226733E+04   -0.12059E-05   -0.98540E-08   813   0.474E-04    0.233E-04
RMM:  37    -0.110286226807E+04   -0.73785E-06   -0.87869E-08   776   0.447E-04
  15 F= -.11100010E+04 E0= -.11099819E+04  d E =-.978375E-02  mag=    37.0916
 curvature:  -0.07 expect dE=-0.178E-02 dE for cont linesearch -0.728E-10
 trial: gam= 0.76308 g(F)=  0.235E-01 g(S)=  0.927E-03 ort =-0.807E-05 (trialstep = 0.258E+00)
 search vector abs. value=  0.624E-01
 bond charge predicted
       N       E                     dE             d eps       ncg     rms          rms(c)
DAV:   1    -0.110286459724E+04   -0.23299E-02   -0.11690E+00  1950   0.232E+00    0.414E-01
RMM:   2    -0.110286987552E+04   -0.52783E-02   -0.24783E-02  2244   0.362E-01    0.143E+00
RMM:   3    -0.110286799104E+04    0.18845E-02   -0.55993E-03  2244   0.172E-01    0.107E+00
RMM:   4    -0.110287090743E+04   -0.29164E-02   -0.36035E-03  2269   0.133E-01    0.151E+00
RMM:   5    -0.110286718793E+04    0.37195E-02   -0.19282E-03  2108   0.100E-01    0.722E-01
RMM:   6    -0.110286760175E+04   -0.41383E-03   -0.11072E-03  2033   0.764E-02    0.289E-01
RMM:   7    -0.110286805378E+04   -0.45203E-03   -0.48970E-04  2122   0.480E-02    0.373E-01
RMM:   8    -0.110286788208E+04    0.17170E-03   -0.25933E-04  2172   0.337E-02    0.216E-01
RMM:   9    -0.110286793494E+04   -0.52862E-04   -0.19297E-04  2035   0.293E-02    0.210E-01
RMM:  10    -0.110286791400E+04    0.20946E-04   -0.13853E-04  2109   0.264E-02    0.123E-01
RMM:  11    -0.110286791549E+04   -0.14885E-05   -0.87013E-05  1953   0.211E-02    0.988E-02
RMM:  12    -0.110286794746E+04   -0.31975E-04   -0.56631E-05  1738   0.156E-02    0.142E-01
RMM:  13    -0.110286792078E+04    0.26680E-04   -0.31436E-05  1551   0.125E-02    0.964E-02
RMM:  14    -0.110286791451E+04    0.62703E-05   -0.13518E-05  1398   0.860E-03    0.705E-02
RMM:  15    -0.110286792002E+04   -0.55066E-05   -0.66294E-06  1332   0.555E-03    0.606E-02
RMM:  16    -0.110286791977E+04    0.24449E-06   -0.33531E-06  1282   0.432E-03
  16 F= -.11100056E+04 E0= -.11099865E+04  d E =-.466896E-02  mag=    37.0924
 trial-energy change:   -0.004669  1 .order   -0.004739   -0.006299   -0.003179
 step:   0.6610(harm=  0.5213)  dis= 0.00729  next Energy= -1110.007857 (dE=-0.688E-02)
 bond charge predicted
       N       E                     dE             d eps       ncg     rms          rms(c)
DAV:   1    -0.110286237481E+04    0.55452E-02   -0.28448E+00  1938   0.363E+00    0.645E-01
RMM:   2    -0.110287545881E+04   -0.13084E-01   -0.60409E-02  2243   0.565E-01    0.233E+00
RMM:   3    -0.110287014083E+04    0.53180E-02   -0.13503E-02  2247   0.265E-01    0.145E+00
RMM:   4    -0.110288014502E+04   -0.10004E-01   -0.87909E-03  2288   0.205E-01    0.266E+00
RMM:   5    -0.110286863722E+04    0.11508E-01   -0.54282E-03  2118   0.168E-01    0.108E+00
RMM:   6    -0.110287018937E+04   -0.15521E-02   -0.31395E-03  2040   0.129E-01    0.595E-01
RMM:   7    -0.110287087598E+04   -0.68661E-03   -0.12330E-03  2164   0.749E-02    0.637E-01
RMM:   8    -0.110287035193E+04    0.52405E-03   -0.62329E-04  2193   0.530E-02    0.321E-01
RMM:   9    -0.110287056127E+04   -0.20935E-03   -0.44840E-04  2092   0.437E-02    0.343E-01
RMM:  10    -0.110287049182E+04    0.69452E-04   -0.28333E-04  2176   0.374E-02    0.199E-01
RMM:  11    -0.110287052792E+04   -0.36095E-04   -0.23669E-04  2111   0.327E-02    0.213E-01
RMM:  12    -0.110287057467E+04   -0.46749E-04   -0.17990E-04  2037   0.270E-02    0.244E-01
RMM:  13    -0.110287051930E+04    0.55370E-04   -0.10279E-04  1861   0.228E-02    0.175E-01
RMM:  14    -0.110287050079E+04    0.18511E-04   -0.45116E-05  1715   0.148E-02    0.142E-01
RMM:  15    -0.110287051280E+04   -0.12016E-04   -0.25904E-05  1510   0.102E-02    0.124E-01
RMM:  16    -0.110287050939E+04    0.34161E-05   -0.12548E-05  1413   0.815E-03    0.520E-02
RMM:  17    -0.110287054979E+04   -0.40406E-04   -0.69384E-06  1387   0.582E-03    0.293E-02
RMM:  18    -0.110287057112E+04   -0.21323E-04   -0.46678E-06  1325   0.507E-03    0.294E-02
RMM:  19    -0.110287058806E+04   -0.16946E-04   -0.19573E-06  1222   0.358E-03    0.117E-02
RMM:  20    -0.110287060445E+04   -0.16392E-04   -0.12266E-06  1182   0.268E-03    0.143E-02
RMM:  21    -0.110287062361E+04   -0.19154E-04   -0.85990E-07  1149   0.229E-03    0.541E-03
RMM:  22    -0.110287064964E+04   -0.26028E-04   -0.58219E-07  1121   0.151E-03    0.487E-03
RMM:  23    -0.110287066081E+04   -0.11176E-04   -0.47564E-07  1068   0.154E-03    0.617E-03
RMM:  24    -0.110287066847E+04   -0.76575E-05   -0.29553E-07  1001   0.113E-03    0.374E-03
RMM:  25    -0.110287067665E+04   -0.81780E-05   -0.18845E-07   961   0.774E-04    0.397E-03
RMM:  26    -0.110287068645E+04   -0.98028E-05   -0.17768E-07   922   0.752E-04    0.435E-03
RMM:  27    -0.110287069944E+04   -0.12986E-04   -0.19635E-07   935   0.785E-04    0.278E-03
RMM:  28    -0.110287071863E+04   -0.19197E-04   -0.28744E-07   978   0.715E-04    0.140E-03
RMM:  29    -0.110287072866E+04   -0.10030E-04   -0.22082E-07   919   0.738E-04    0.155E-03
[...]
RMM:  36    -0.110307841271E+04   -0.11821E-05   -0.40541E-07   928   0.825E-04    0.369E-04
RMM:  37    -0.110307841351E+04   -0.79154E-06   -0.29306E-07   859   0.708E-04
 246 F= -.11102853E+04 E0= -.11102668E+04  d E =-.400685E-02  mag=    37.0865
 ZBRENT: can't locate minimum, use default step
 trial-energy change:   -0.004007  1 .order   -0.004069   -0.004416   -0.003721
 step:   0.1806(harm=  0.2867)  dis= 0.03605  next Energy= -1110.295290 (dE=-0.140E-01)
 bond charge predicted
       N       E                     dE             d eps       ncg     rms          rms(c)
DAV:   1    -0.110270891872E+04    0.36949E+00   -0.14662E+02  1896   0.259E+01    0.366E+00
RMM:   2    -0.110310962472E+04   -0.40071E+00   -0.33098E+00  2123   0.389E+00    0.688E+00
RMM:   3    -0.110334661855E+04   -0.23699E+00   -0.64213E-01  2112   0.190E+00    0.103E+01
RMM:   4    -0.110310655364E+04    0.24006E+00   -0.21524E-01  2393   0.102E+00    0.506E+00
RMM:   5    -0.110307101741E+04    0.35536E-01   -0.43860E-02  2199   0.424E-01    0.187E+00
RMM:   6    -0.110310385697E+04   -0.32840E-01   -0.33879E-02  2148   0.385E-01    0.414E+00
RMM:   7    -0.110307639810E+04    0.27459E-01   -0.17805E-02  2205   0.294E-01    0.158E+00
RMM:   8    -0.110308478328E+04   -0.83852E-02   -0.12801E-02  2113   0.246E-01    0.218E+00
RMM:   9    -0.110309230570E+04   -0.75224E-02   -0.12013E-02  2196   0.213E-01    0.289E+00
RMM:  10    -0.110307840250E+04    0.13903E-01   -0.11149E-02  2099   0.240E-01    0.107E+00
RMM:  11    -0.110308263200E+04   -0.42295E-02   -0.77401E-03  2132   0.177E-01    0.170E+00
RMM:  12    -0.110307944568E+04    0.31863E-02   -0.54792E-03  2144   0.158E-01    0.869E-01
RMM:  13    -0.110307981685E+04   -0.37117E-03   -0.23622E-03  2151   0.113E-01    0.605E-01
RMM:  14    -0.110308021133E+04   -0.39448E-03   -0.11352E-03  2188   0.724E-02    0.544E-01
RMM:  15    -0.110308051804E+04   -0.30671E-03   -0.64485E-04  2070   0.567E-02    0.432E-01
RMM:  16    -0.110308064925E+04   -0.13121E-03   -0.44551E-04  2050   0.419E-02    0.360E-01
RMM:  17    -0.110308086498E+04   -0.21573E-03   -0.21752E-04  2027   0.316E-02    0.190E-01
RMM:  18    -0.110308109137E+04   -0.22639E-03   -0.16584E-04  2009   0.272E-02    0.208E-01
RMM:  19    -0.110308141330E+04   -0.32193E-03   -0.77829E-05  1900   0.191E-02    0.132E-01
RMM:  20    -0.110308167732E+04   -0.26402E-03   -0.63560E-05  1871   0.161E-02    0.122E-01
RMM:  21    -0.110308188989E+04   -0.21257E-03   -0.41333E-05  1798   0.133E-02    0.613E-02
RMM:  22    -0.110308203971E+04   -0.14982E-03   -0.15128E-05  1581   0.812E-03    0.481E-02
RMM:  23    -0.110308209005E+04   -0.50335E-04   -0.78282E-06  1393   0.616E-03    0.420E-02
RMM:  24    -0.110308215887E+04   -0.68824E-04   -0.43601E-06  1348   0.463E-03    0.220E-02
RMM:  25    -0.110308232711E+04   -0.16824E-03   -0.53343E-06  1460   0.367E-03    0.308E-02
RMM:  26    -0.110308245844E+04   -0.13133E-03   -0.54757E-06  1423   0.427E-03    0.337E-02
RMM:  27    -0.110308257299E+04   -0.11455E-03   -0.43754E-06  1405   0.365E-03    0.155E-02
RMM:  28    -0.110308266322E+04   -0.90237E-04   -0.26257E-06  1288   0.257E-03    0.888E-03
RMM:  29    -0.110308272439E+04   -0.61162E-04   -0.21039E-06  1233   0.251E-03    0.118E-02
RMM:  30    -0.110308280495E+04   -0.80559E-04   -0.23712E-06  1256   0.239E-03    0.529E-03
RMM:  31    -0.110308292915E+04   -0.12421E-03   -0.44301E-06  1408   0.219E-03    0.449E-03
RMM:  32    -0.110308301710E+04   -0.87945E-04   -0.30972E-06  1315   0.212E-03    0.459E-03
RMM:  33    -0.110308309204E+04   -0.74940E-04   -0.44124E-06  1356   0.205E-03    0.387E-03
RMM:  34    -0.110308314990E+04   -0.57868E-04   -0.46214E-06  1441   0.225E-03    0.207E-03
RMM:  35    -0.110308317663E+04   -0.26723E-04   -0.31210E-06  1273   0.192E-03    0.187E-03
RMM:  36    -0.110308319197E+04   -0.15346E-04   -0.22086E-06  1215   0.182E-03    0.122E-03
RMM:  37    -0.110308319679E+04   -0.48161E-05   -0.13160E-06  1064   0.144E-03    0.863E-04
RMM:  38    -0.110308319980E+04   -0.30132E-05   -0.71128E-07   989   0.119E-03    0.714E-04
RMM:  39    -0.110308320260E+04   -0.27970E-05   -0.50526E-07   979   0.944E-04    0.405E-04
RMM:  40    -0.110308320436E+04   -0.17596E-05   -0.31176E-07   915   0.821E-04    0.425E-04
RMM:  41    -0.110308320631E+04   -0.19478E-05   -0.22286E-07   875   0.651E-04    0.314E-04
RMM:  42    -0.110308320807E+04   -0.17643E-05   -0.16035E-07   845   0.596E-04    0.161E-04
RMM:  43    -0.110308320963E+04   -0.15562E-05   -0.13222E-07   818   0.512E-04    0.136E-04
RMM:  44    -0.110308321040E+04   -0.76990E-06   -0.90909E-08   761   0.483E-04
 247 F= -.11102933E+04 E0= -.11102748E+04  d E =-.119972E-01  mag=    37.0863
 curvature: -40.96 expect dE=-0.416E+01 dE for cont linesearch -0.177E-02
 ZBRENT: increasing intervall
 opt :   0.4516  next Energy= -1110.291897 (dE=-0.106E-01)
 bond charge predicted
       N       E                     dE             d eps       ncg     rms          rms(c)
DAV:   1    -0.110144013210E+04    0.16431E+01   -0.58660E+02  1908   0.520E+01    0.763E+00
RMM:   2    -0.110342759372E+04   -0.19875E+01   -0.14944E+01  2211   0.825E+00    0.200E+01
RMM:   3    -0.110360040843E+04   -0.17281E+00   -0.27143E+00  2191   0.380E+00    0.120E+01
RMM:   4    -0.110345467763E+04    0.14573E+00   -0.74613E-01  2379   0.193E+00    0.111E+01
RMM:   5    -0.110317955297E+04    0.27512E+00   -0.27494E-01  2203   0.110E+00    0.717E+00
RMM:   6    -0.110312460792E+04    0.54945E-01   -0.17396E-01  2204   0.844E-01    0.660E+00
RMM:   7    -0.110307851666E+04    0.46091E-01   -0.88858E-02  2263   0.584E-01    0.530E+00
RMM:   8    -0.110306308389E+04    0.15433E-01   -0.66721E-02  2150   0.518E-01    0.377E+00
RMM:   9    -0.110309035816E+04   -0.27274E-01   -0.49733E-02  2094   0.456E-01    0.480E+00
RMM:  10    -0.110305917247E+04    0.31186E-01   -0.30500E-02  2189   0.360E-01    0.247E+00
RMM:  11    -0.110307543957E+04   -0.16267E-01   -0.23641E-02  2094   0.323E-01    0.311E+00
RMM:  12    -0.110307017501E+04    0.52646E-02   -0.24011E-02  2135   0.313E-01    0.254E+00
RMM:  13    -0.110307915284E+04   -0.89778E-02   -0.22849E-02  2145   0.314E-01    0.309E+00
RMM:  14    -0.110306601151E+04    0.13141E-01   -0.15008E-02  2148   0.280E-01    0.109E+00
RMM:  15    -0.110308357318E+04   -0.17562E-01   -0.12329E-02  2150   0.224E-01    0.446E+00
RMM:  16    -0.110306430252E+04    0.19271E-01   -0.92387E-03  2100   0.197E-01    0.249E+00
RMM:  17    -0.110306563993E+04   -0.13374E-02   -0.33172E-03  2047   0.135E-01    0.168E+00
RMM:  18    -0.110306730661E+04   -0.16667E-02   -0.20788E-03  2106   0.101E-01    0.823E-01
RMM:  19    -0.110306948081E+04   -0.21742E-02   -0.17650E-03  2058   0.984E-02    0.456E-01
RMM:  20    -0.110307032839E+04   -0.84758E-03   -0.59223E-04  2039   0.590E-02    0.306E-01
RMM:  21    -0.110307063389E+04   -0.30550E-03   -0.34299E-04  2085   0.394E-02    0.280E-01
RMM:  22    -0.110307089251E+04   -0.25862E-03   -0.18455E-04  2040   0.296E-02    0.246E-01
RMM:  23    -0.110307146240E+04   -0.56989E-03   -0.12559E-04  1997   0.239E-02    0.227E-01
RMM:  24    -0.110307175925E+04   -0.29685E-03   -0.11446E-04  1983   0.217E-02    0.151E-01
RMM:  25    -0.110307217503E+04   -0.41578E-03   -0.47200E-05  1837   0.145E-02    0.596E-02
RMM:  26    -0.110307235306E+04   -0.17803E-03   -0.17324E-05  1637   0.849E-03    0.652E-02
RMM:  27    -0.110307245308E+04   -0.10003E-03   -0.11635E-05  1489   0.695E-03    0.674E-02
RMM:  28    -0.110307262545E+04   -0.17236E-03   -0.99077E-06  1505   0.656E-03    0.519E-02
RMM:  29    -0.110307296510E+04   -0.33965E-03   -0.12366E-05  1644   0.584E-03    0.420E-02
RMM:  30    -0.110307314675E+04   -0.18165E-03   -0.77828E-06  1494   0.525E-03    0.384E-02
RMM:  31    -0.110307334751E+04   -0.20077E-03   -0.67224E-06  1515   0.429E-03    0.228E-02
RMM:  32    -0.110307357810E+04   -0.23058E-03   -0.67195E-06  1580   0.352E-03    0.218E-02
RMM:  33    -0.110307381835E+04   -0.24025E-03   -0.72501E-06  1578   0.319E-03    0.112E-02
RMM:  34    -0.110307409925E+04   -0.28090E-03   -0.10116E-05  1662   0.330E-03    0.698E-03
RMM:  35    -0.110307428340E+04   -0.18416E-03   -0.86107E-06  1590   0.306E-03    0.908E-03
RMM:  36    -0.110307438037E+04   -0.96963E-04   -0.56032E-06  1481   0.271E-03    0.609E-03
RMM:  37    -0.110307445538E+04   -0.75011E-04   -0.53957E-06  1419   0.242E-03    0.443E-03
RMM:  38    -0.110307451229E+04   -0.56907E-04   -0.53708E-06  1436   0.237E-03    0.344E-03
RMM:  39    -0.110307453540E+04   -0.23112E-04   -0.28880E-06  1266   0.197E-03    0.240E-03
RMM:  40    -0.110307454501E+04   -0.96164E-05   -0.15490E-06  1147   0.164E-03    0.959E-04
RMM:  41    -0.110307455074E+04   -0.57286E-05   -0.10446E-06  1048   0.133E-03    0.143E-03
RMM:  42    -0.110307455400E+04   -0.32618E-05   -0.61925E-07  1008   0.110E-03    0.594E-04
RMM:  43    -0.110307455638E+04   -0.23763E-05   -0.41567E-07   953   0.893E-04    0.642E-04
RMM:  44    -0.110307455846E+04   -0.20817E-05   -0.29210E-07   916   0.758E-04    0.599E-04
RMM:  45    -0.110307456005E+04   -0.15849E-05   -0.20398E-07   857   0.639E-04    0.333E-04
RMM:  46    -0.110307456150E+04   -0.14499E-05   -0.14916E-07   830   0.556E-04    0.265E-04
RMM:  47    -0.110307456260E+04   -0.11003E-05   -0.10873E-07   769   0.493E-04    0.258E-04
RMM:  48    -0.110307456322E+04   -0.62482E-06   -0.75332E-08   705   0.440E-04
 248 F= -.11102916E+04 E0= -.11102732E+04  d E =-.103002E-01  mag=    37.0862
 curvature:  31.72 expect dE= 0.116E+02 dE for cont linesearch  0.218E-02
 ZBRENT: bracketing found
 ZBRENT: interpolating
 opt :   0.3005  next Energy= -1110.295584 (dE=-0.143E-01)
 bond charge predicted
       N       E                     dE             d eps       ncg     rms          rms(c)
DAV:   1    -0.110262428687E+04    0.45028E+00   -0.18331E+02  1908   0.291E+01    0.401E+00
RMM:   2    -0.110315281526E+04   -0.52853E+00   -0.40196E+00  2220   0.433E+00    0.807E+00
RMM:   3    -0.110338067134E+04   -0.22786E+00   -0.76764E-01  2198   0.203E+00    0.109E+01
RMM:   4    -0.110318661575E+04    0.19406E+00   -0.29200E-01  2373   0.117E+00    0.807E+00
RMM:   5    -0.110307872939E+04    0.10789E+00   -0.79824E-02  2136   0.622E-01    0.317E+00
RMM:   6    -0.110308771411E+04   -0.89847E-02   -0.49609E-02  2206   0.454E-01    0.290E+00
RMM:   7    -0.110310169769E+04   -0.13984E-01   -0.33437E-02  2215   0.363E-01    0.384E+00
RMM:   8    -0.110308103812E+04    0.20660E-01   -0.20057E-02  2190   0.293E-01    0.182E+00
RMM:   9    -0.110308865448E+04   -0.76164E-02   -0.16614E-02  2128   0.269E-01    0.208E+00
RMM:  10    -0.110308723558E+04    0.14189E-02   -0.13620E-02  2180   0.230E-01    0.202E+00
RMM:  11    -0.110308268588E+04    0.45497E-02   -0.10005E-02  2135   0.199E-01    0.159E+00
RMM:  12    -0.110308065387E+04    0.20320E-02   -0.66595E-03  2156   0.158E-01    0.103E+00
RMM:  13    -0.110308026190E+04    0.39197E-03   -0.20551E-03  2156   0.955E-02    0.604E-01
RMM:  14    -0.110308101181E+04   -0.74992E-03   -0.18548E-03  2173   0.894E-02    0.668E-01
RMM:  15    -0.110308096125E+04    0.50560E-04   -0.12193E-03  2104   0.751E-02    0.479E-01
RMM:  16    -0.110308115376E+04   -0.19251E-03   -0.70066E-04  2068   0.581E-02    0.450E-01
RMM:  17    -0.110308088431E+04    0.26945E-03   -0.23911E-04  1973   0.353E-02    0.213E-01
RMM:  18    -0.110308099354E+04   -0.10923E-03   -0.16985E-04  1966   0.279E-02    0.221E-01
RMM:  19    -0.110308099480E+04   -0.12584E-05   -0.10102E-04  1912   0.218E-02    0.137E-01
RMM:  20    -0.110308118889E+04   -0.19409E-03   -0.58844E-05  1884   0.168E-02    0.131E-01
RMM:  21    -0.110308132333E+04   -0.13444E-03   -0.60487E-05  1788   0.170E-02    0.127E-01
RMM:  22    -0.110308143160E+04   -0.10828E-03   -0.27803E-05  1676   0.120E-02    0.459E-02
RMM:  23    -0.110308153689E+04   -0.10528E-03   -0.84323E-06  1450   0.664E-03    0.420E-02
RMM:  24    -0.110308157579E+04   -0.38899E-04   -0.47116E-06  1343   0.487E-03    0.367E-02
RMM:  25    -0.110308162591E+04   -0.50123E-04   -0.31115E-06  1302   0.404E-03    0.261E-02
RMM:  26    -0.110308176702E+04   -0.14111E-03   -0.49681E-06  1411   0.413E-03    0.291E-02
RMM:  27    -0.110308184657E+04   -0.79551E-04   -0.44387E-06  1345   0.446E-03    0.272E-02
RMM:  28    -0.110308193207E+04   -0.85506E-04   -0.29383E-06  1309   0.339E-03    0.134E-02
RMM:  29    -0.110308203019E+04   -0.98114E-04   -0.29114E-06  1331   0.260E-03    0.132E-02
RMM:  30    -0.110308207362E+04   -0.43431E-04   -0.18183E-06  1196   0.259E-03    0.139E-02
RMM:  31    -0.110308216445E+04   -0.90833E-04   -0.31830E-06  1342   0.255E-03    0.967E-03
RMM:  32    -0.110308223653E+04   -0.72078E-04   -0.34443E-06  1388   0.229E-03    0.718E-03
RMM:  33    -0.110308228522E+04   -0.48686E-04   -0.27743E-06  1290   0.206E-03    0.453E-03
RMM:  34    -0.110308232803E+04   -0.42809E-04   -0.35591E-06  1359   0.209E-03    0.390E-03
RMM:  35    -0.110308235178E+04   -0.23755E-04   -0.27161E-06  1294   0.197E-03    0.171E-03
RMM:  36    -0.110308236040E+04   -0.86210E-05   -0.15690E-06  1120   0.168E-03    0.118E-03
RMM:  37    -0.110308236630E+04   -0.58990E-05   -0.98201E-07  1055   0.135E-03    0.150E-03
RMM:  38    -0.110308236957E+04   -0.32732E-05   -0.62908E-07  1009   0.114E-03    0.546E-04
RMM:  39    -0.110308237247E+04   -0.28953E-05   -0.40625E-07   941   0.910E-04    0.846E-04
RMM:  40    -0.110308237528E+04   -0.28119E-05   -0.26327E-07   897   0.749E-04    0.391E-04
RMM:  41    -0.110308237736E+04   -0.20835E-05   -0.16820E-07   835   0.611E-04    0.239E-04
RMM:  42    -0.110308237947E+04   -0.21098E-05   -0.12145E-07   800   0.523E-04    0.264E-04
RMM:  43    -0.110308238069E+04   -0.12169E-05   -0.87941E-08   762   0.468E-04    0.123E-04
RMM:  44    -0.110308238146E+04   -0.77413E-06   -0.70378E-08   723   0.428E-04
 249 F= -.11102954E+04 E0= -.11102770E+04  d E =-.141526E-01  mag=    37.0863
 curvature: -33.73 expect dE=-0.593E+01 dE for cont linesearch -0.105E-06
 trial: gam= 1.14512 g(F)=  0.174E+00 g(S)=  0.138E-02 ort = 0.328E-03 (trialstep = 0.731E-01)
 search vector abs. value=  0.456E+02
 bond charge predicted
       N       E                     dE             d eps       ncg     rms          rms(c)
DAV:   1    -0.110295117244E+04    0.13121E+00   -0.55861E+01  1896   0.160E+01    0.225E+00
RMM:   2    -0.110309594089E+04   -0.14477E+00   -0.12159E+00  2091   0.238E+00    0.383E+00
RMM:   3    -0.110320838526E+04   -0.11244E+00   -0.24720E-01  2094   0.120E+00    0.781E+00
RMM:   4    -0.110310919438E+04    0.99191E-01   -0.99240E-02  2414   0.668E-01    0.440E+00
RMM:   5    -0.110308746774E+04    0.21727E-01   -0.31502E-02  2128   0.393E-01    0.207E+00
RMM:   6    -0.110309403132E+04   -0.65636E-02   -0.15479E-02  2164   0.269E-01    0.195E+00
RMM:   7    -0.110309150009E+04    0.25312E-02   -0.73060E-03  2265   0.172E-01    0.150E+00
RMM:   8    -0.110308913843E+04    0.23617E-02   -0.50335E-03  2108   0.155E-01    0.971E-01
RMM:   9    -0.110309165352E+04   -0.25151E-02   -0.52840E-03  2142   0.153E-01    0.126E+00
RMM:  10    -0.110308975415E+04    0.18994E-02   -0.46124E-03  2139   0.149E-01    0.853E-01
RMM:  11    -0.110309011305E+04   -0.35890E-03   -0.29866E-03  2172   0.118E-01    0.100E+00
RMM:  12    -0.110308887392E+04    0.12391E-02   -0.17475E-03  2148   0.838E-02    0.630E-01
RMM:  13    -0.110308916955E+04   -0.29563E-03   -0.88482E-04  2130   0.616E-02    0.479E-01
RMM:  14    -0.110308914061E+04    0.28936E-04   -0.64114E-04  2069   0.565E-02    0.303E-01
RMM:  15    -0.110308936404E+04   -0.22343E-03   -0.27791E-04  2071   0.354E-02    0.286E-01
RMM:  16    -0.110308932196E+04    0.42082E-04   -0.15287E-04  1962   0.283E-02    0.136E-01
RMM:  17    -0.110308948836E+04   -0.16640E-03   -0.57070E-05  1840   0.159E-02    0.890E-02
RMM:  18    -0.110308955710E+04   -0.68735E-04   -0.36112E-05  1704   0.131E-02    0.569E-02
RMM:  19    -0.110308971557E+04   -0.15847E-03   -0.15425E-05  1624   0.833E-03    0.407E-02
RMM:  20    -0.110308979655E+04   -0.80983E-04   -0.10566E-05  1455   0.667E-03    0.425E-02
RMM:  21    -0.110308987223E+04   -0.75673E-04   -0.60679E-06  1395   0.522E-03    0.190E-02
RMM:  22    -0.110308995637E+04   -0.84146E-04   -0.35458E-06  1350   0.342E-03    0.212E-02
RMM:  23    -0.110309001688E+04   -0.60502E-04   -0.32908E-06  1328   0.366E-03    0.236E-02
RMM:  24    -0.110309008976E+04   -0.72882E-04   -0.29565E-06  1327   0.320E-03    0.111E-02
RMM:  25    -0.110309014241E+04   -0.52650E-04   -0.17657E-06  1208   0.219E-03    0.737E-03
RMM:  26    -0.110309016782E+04   -0.25414E-04   -0.10847E-06  1124   0.202E-03    0.805E-03
RMM:  27    -0.110309020036E+04   -0.32538E-04   -0.97873E-07  1097   0.171E-03    0.692E-03
RMM:  28    -0.110309025382E+04   -0.53460E-04   -0.14945E-06  1153   0.162E-03    0.536E-03
RMM:  29    -0.110309029391E+04   -0.40086E-04   -0.14256E-06  1131   0.177E-03    0.653E-03
RMM:  30    -0.110309033447E+04   -0.40568E-04   -0.15747E-06  1133   0.167E-03    0.363E-03
RMM:  31    -0.110309035766E+04   -0.23187E-04   -0.10135E-06  1067   0.140E-03    0.248E-03
RMM:  32    -0.110309037593E+04   -0.18270E-04   -0.84924E-07  1023   0.115E-03    0.193E-03
RMM:  33    -0.110309040579E+04   -0.29861E-04   -0.14592E-06  1149   0.126E-03    0.148E-03
RMM:  34    -0.110309043570E+04   -0.29909E-04   -0.24447E-06  1248   0.149E-03    0.148E-03
RMM:  35    -0.110309044856E+04   -0.12860E-04   -0.17638E-06  1167   0.148E-03    0.107E-03
RMM:  36    -0.110309045321E+04   -0.46487E-05   -0.11699E-06  1052   0.127E-03    0.581E-04
RMM:  37    -0.110309045550E+04   -0.22954E-05   -0.66080E-07   985   0.106E-03    0.435E-04
RMM:  38    -0.110309045680E+04   -0.12985E-05   -0.40488E-07   923   0.886E-04    0.312E-04
RMM:  39    -0.110309045774E+04   -0.93366E-06   -0.25965E-07   851   0.715E-04
 250 F= -.11103058E+04 E0= -.11102874E+04  d E =-.104247E-01  mag=    37.0873
 trial-energy change:   -0.010425  1 .order   -0.010536   -0.012884   -0.008189
 step:   0.2006(harm=  0.2006)  dis= 0.04244  next Energy= -1110.313101 (dE=-0.177E-01)
 bond charge predicted
       N       E                     dE             d eps       ncg     rms          rms(c)
DAV:   1    -0.110265282909E+04    0.43763E+00   -0.16984E+02  1908   0.279E+01    0.398E+00
RMM:   2    -0.110312606252E+04   -0.47323E+00   -0.39005E+00  2115   0.423E+00    0.753E+00
RMM:   3    -0.110339057591E+04   -0.26451E+00   -0.75796E-01  2103   0.208E+00    0.108E+01
RMM:   4    -0.110314270152E+04    0.24787E+00   -0.25549E-01  2392   0.111E+00    0.594E+00
RMM:   5    -0.110307720326E+04    0.65498E-01   -0.54343E-02  2178   0.483E-01    0.180E+00
RMM:   6    -0.110310414898E+04   -0.26946E-01   -0.32826E-02  2194   0.379E-01    0.363E+00
RMM:   7    -0.110308810599E+04    0.16043E-01   -0.16657E-02  2193   0.270E-01    0.175E+00
RMM:   8    -0.110309406317E+04   -0.59572E-02   -0.14387E-02  2105   0.258E-01    0.180E+00
RMM:   9    -0.110310413504E+04   -0.10072E-01   -0.15396E-02  2194   0.233E-01    0.359E+00
RMM:  10    -0.110308638461E+04    0.17750E-01   -0.13512E-02  2093   0.251E-01    0.142E+00
RMM:  11    -0.110309479835E+04   -0.84137E-02   -0.10291E-02  2116   0.217E-01    0.212E+00
RMM:  12    -0.110308975880E+04    0.50396E-02   -0.73402E-03  2112   0.189E-01    0.127E+00
RMM:  13    -0.110309078143E+04   -0.10226E-02   -0.41768E-03  2103   0.142E-01    0.114E+00
RMM:  14    -0.110308992942E+04    0.85201E-03   -0.16193E-03  2130   0.907E-02    0.854E-01
RMM:  15    -0.110309008979E+04   -0.16036E-03   -0.83259E-04  2151   0.577E-02    0.781E-01
RMM:  16    -0.110309015336E+04   -0.63574E-04   -0.64782E-04  2053   0.517E-02    0.486E-01
RMM:  17    -0.110309046241E+04   -0.30905E-03   -0.32486E-04  2097   0.385E-02    0.333E-01
RMM:  18    -0.110309084536E+04   -0.38295E-03   -0.26833E-04  2089   0.349E-02    0.194E-01
