 running on   24 total cores
 distrk:  each k-point on   24 cores,    1 groups
 distr:  one band on    4 cores,    6 groups
 using from now: INCAR     
 vasp.5.4.4.18Apr17-6-g9f103f2a35 (build May 21 2019 18:55:53) complex          
  
 POSCAR found type information on POSCAR  O  C  H  Co Li
 POSCAR found :  5 types and     150 ions
 LDA part: xc-table for Pade appr. of Perdew
 POSCAR found type information on POSCAR  O  C  H  Co Li
 POSCAR found :  5 types and     150 ions
 POSCAR, INCAR and KPOINTS ok, starting setup
 FFT: planning ...
 WAVECAR not read
 WARNING: random wavefunctions but no delay for mixing, default for NELMDL
 entering main loop
       N       E                     dE             d eps       ncg     rms          rms(c)
DAV:   1     0.874167232206E+04    0.87417E+04   -0.32685E+05  1896   0.139E+03
DAV:   2     0.854284884042E+03   -0.78874E+04   -0.71102E+04  2160   0.451E+02
DAV:   3    -0.109655034323E+04   -0.19508E+04   -0.18499E+04  3180   0.224E+02
DAV:   4    -0.124768993978E+04   -0.15114E+03   -0.14100E+03  3000   0.700E+01
DAV:   5    -0.125565198515E+04   -0.79620E+01   -0.74134E+01  3144   0.150E+01    0.166E+02
RMM:   6    -0.165141626126E+04   -0.39576E+03   -0.33131E+03  2377   0.143E+02    0.507E+02
RMM:   7    -0.146208543366E+04    0.18933E+03   -0.21932E+02  1897   0.445E+01    0.324E+02
RMM:   8    -0.104367267639E+04    0.41841E+03   -0.50813E+02  2021   0.479E+01    0.103E+02
RMM:   9    -0.126629820315E+04   -0.22263E+03   -0.16616E+02  2053   0.291E+01    0.190E+02
RMM:  10    -0.113616876138E+04    0.13013E+03   -0.83201E+01  1966   0.221E+01    0.144E+02
RMM:  11    -0.106730659518E+04    0.68862E+02   -0.83199E+01  1974   0.209E+01    0.122E+02
RMM:  12    -0.109635151426E+04   -0.29045E+02   -0.96036E+01  1953   0.227E+01    0.122E+02
RMM:  13    -0.104807453060E+04    0.48277E+02   -0.69250E+01  1932   0.205E+01    0.113E+02
RMM:  14    -0.100340941603E+04    0.44665E+02   -0.43696E+01  2006   0.143E+01    0.906E+01
RMM:  15    -0.998100262020E+03    0.53092E+01   -0.27779E+01  1981   0.119E+01    0.745E+01
RMM:  16    -0.100493176561E+04   -0.68315E+01   -0.18664E+01  1945   0.103E+01    0.887E+01
RMM:  17    -0.988948736071E+03    0.15983E+02   -0.10173E+01  2035   0.689E+00    0.663E+01
RMM:  18    -0.983607530049E+03    0.53412E+01   -0.70714E+00  2003   0.583E+00    0.513E+01
RMM:  19    -0.985352176415E+03   -0.17446E+01   -0.43034E+00  2056   0.419E+00    0.490E+01
RMM:  20    -0.984536711045E+03    0.81547E+00   -0.35707E+00  2016   0.385E+00    0.391E+01
RMM:  21    -0.982990914789E+03    0.15458E+01   -0.19916E+00  2013   0.306E+00    0.288E+01
RMM:  22    -0.984644774484E+03   -0.16539E+01   -0.10777E+00  2014   0.216E+00    0.256E+01
RMM:  23    -0.986903069540E+03   -0.22583E+01   -0.67407E-01  2076   0.174E+00    0.268E+01
RMM:  24    -0.988921949924E+03   -0.20189E+01   -0.12542E+00  2008   0.215E+00    0.259E+01
RMM:  25    -0.989378769505E+03   -0.45682E+00   -0.40243E-01  2072   0.125E+00    0.207E+01
RMM:  26    -0.991183026706E+03   -0.18043E+01   -0.64620E-01  1981   0.162E+00    0.229E+01
RMM:  27    -0.992389153008E+03   -0.12061E+01   -0.79123E-01  1990   0.174E+00    0.212E+01
RMM:  28    -0.994732030210E+03   -0.23429E+01   -0.94548E-01  1987   0.193E+00    0.178E+01
RMM:  29    -0.100098434787E+04   -0.62523E+01   -0.19688E+00  1990   0.247E+00    0.243E+01
RMM:  30    -0.100217015516E+04   -0.11858E+01   -0.13431E+00  2022   0.226E+00    0.160E+01
RMM:  31    -0.100641699112E+04   -0.42468E+01   -0.15715E+00  2014   0.241E+00    0.291E+01
RMM:  32    -0.100743859552E+04   -0.10216E+01   -0.62752E-01  2150   0.155E+00    0.164E+01
RMM:  33    -0.100775110834E+04   -0.31251E+00   -0.28291E-01  2147   0.101E+00    0.170E+01
RMM:  34    -0.101105875363E+04   -0.33076E+01   -0.75735E-01  1941   0.155E+00    0.196E+01
RMM:  35    -0.101145032590E+04   -0.39157E+00   -0.19567E-01  2134   0.873E-01    0.188E+01
RMM:  36    -0.101173927916E+04   -0.28895E+00   -0.47649E-02  2401   0.354E-01    0.193E+01
RMM:  37    -0.101215778536E+04   -0.41851E+00   -0.38191E-02  2067   0.334E-01    0.199E+01
RMM:  38    -0.101190382056E+04    0.25396E+00   -0.11725E-02  2078   0.203E-01    0.199E+01
RMM:  39    -0.101186629408E+04    0.37526E-01   -0.27236E-03  2405   0.762E-02    0.200E+01
RMM:  40    -0.101345599687E+04   -0.15897E+01   -0.12138E-01  1959   0.583E-01    0.209E+01
RMM:  41    -0.101457490917E+04   -0.11189E+01   -0.14633E-01  2040   0.629E-01    0.221E+01
RMM:  42    -0.101504836652E+04   -0.47346E+00   -0.12564E-01  2169   0.598E-01    0.219E+01
RMM:  43    -0.101524817975E+04   -0.19981E+00   -0.41750E-02  2338   0.314E-01    0.218E+01
RMM:  44    -0.101524343062E+04    0.47491E-02   -0.30856E-02  2152   0.307E-01    0.217E+01
RMM:  45    -0.101553938710E+04   -0.29596E+00   -0.48559E-02  1974   0.402E-01    0.218E+01
RMM:  46    -0.101551438108E+04    0.25006E-01   -0.11527E-02  2044   0.234E-01    0.221E+01
RMM:  47    -0.101529056687E+04    0.22381E+00   -0.90316E-03  1953   0.194E-01    0.219E+01
RMM:  48    -0.101758573784E+04   -0.22952E+01   -0.38351E-01  1910   0.101E+00    0.227E+01
RMM:  49    -0.101779401176E+04   -0.20827E+00   -0.12924E-01  2087   0.691E-01    0.229E+01
RMM:  50    -0.101852721909E+04   -0.73321E+00   -0.12942E-01  2086   0.599E-01    0.233E+01
RMM:  51    -0.102052925341E+04   -0.20020E+01   -0.83138E-01  1908   0.158E+00    0.238E+01
RMM:  52    -0.102067417799E+04   -0.14492E+00   -0.19736E-01  2056   0.946E-01    0.232E+01
RMM:  53    -0.102071944071E+04   -0.45263E-01   -0.12513E-01  2084   0.613E-01    0.232E+01
RMM:  54    -0.102052356451E+04    0.19588E+00   -0.13615E-01  2133   0.621E-01    0.233E+01
RMM:  55    -0.102052337359E+04    0.19092E-03   -0.52073E-02  2405   0.303E-01    0.232E+01
RMM:  56    -0.101981926809E+04    0.70411E+00   -0.77489E-01  1993   0.169E+00    0.216E+01
RMM:  57    -0.102069678365E+04   -0.87752E+00   -0.28287E-01  1950   0.113E+00    0.192E+01
RMM:  58    -0.102087064956E+04   -0.17387E+00   -0.10371E-01  2064   0.665E-01    0.169E+01
RMM:  59    -0.102111019395E+04   -0.23954E+00   -0.73171E-02  2207   0.463E-01    0.154E+01
RMM:  60    -0.102135415171E+04   -0.24396E+00   -0.49027E-02  2088   0.454E-01    0.151E+01
RMM:  61    -0.102061569600E+04    0.73846E+00   -0.76832E-01  1976   0.155E+00    0.223E+01
RMM:  62    -0.102071547395E+04   -0.99778E-01   -0.16535E-01  1939   0.889E-01    0.198E+01
RMM:  63    -0.102053104463E+04    0.18443E+00   -0.11207E-01  2218   0.584E-01    0.174E+01
RMM:  64    -0.102064221751E+04   -0.11117E+00   -0.74446E-02  1975   0.522E-01    0.152E+01
RMM:  65    -0.102092466367E+04   -0.28245E+00   -0.43950E-02  2116   0.377E-01    0.155E+01
RMM:  66    -0.102116929772E+04   -0.24463E+00   -0.85696E-02  2040   0.586E-01    0.151E+01
RMM:  67    -0.102105600834E+04    0.11329E+00   -0.33066E-02  2035   0.382E-01    0.142E+01
RMM:  68    -0.102121628165E+04   -0.16027E+00   -0.29245E-02  2126   0.324E-01    0.131E+01
RMM:  69    -0.102148936200E+04   -0.27308E+00   -0.38893E-02  1992   0.374E-01    0.121E+01
RMM:  70    -0.102189646973E+04   -0.40711E+00   -0.55909E-02  2016   0.403E-01    0.113E+01
RMM:  71    -0.102247387821E+04   -0.57741E+00   -0.15992E-01  2109   0.759E-01    0.119E+01
RMM:  72    -0.102238943064E+04    0.84448E-01   -0.69578E-02  2074   0.551E-01    0.926E+00
RMM:  73    -0.102284118714E+04   -0.45176E+00   -0.75676E-02  2167   0.502E-01    0.745E+00
RMM:  74    -0.102329304548E+04   -0.45186E+00   -0.47734E-02  2260   0.383E-01    0.772E+00
RMM:  75    -0.102381060282E+04   -0.51756E+00   -0.59138E-02  2093   0.367E-01    0.734E+00
RMM:  76    -0.102473216113E+04   -0.92156E+00   -0.22635E-01  2070   0.814E-01    0.766E+00
RMM:  77    -0.102493057429E+04   -0.19841E+00   -0.85234E-02  2247   0.492E-01    0.774E+00
RMM:  78    -0.102490966124E+04    0.20913E-01   -0.17867E-02  2440   0.207E-01    0.756E+00
RMM:  79    -0.102505694630E+04   -0.14729E+00   -0.17508E-02  2085   0.211E-01    0.730E+00
RMM:  80    -0.102517138756E+04   -0.11444E+00   -0.82580E-03  2340   0.123E-01    0.715E+00
RMM:  81    -0.102484566005E+04    0.32573E+00   -0.60048E-02  1963   0.454E-01    0.697E+00
RMM:  82    -0.102500325009E+04   -0.15759E+00   -0.42670E-02  2080   0.406E-01    0.593E+00
RMM:  83    -0.102558385225E+04   -0.58060E+00   -0.55573E-02  1967   0.399E-01    0.618E+00
RMM:  84    -0.102591849291E+04   -0.33464E+00   -0.35316E-02  2270   0.300E-01    0.584E+00
RMM:  85    -0.102599051531E+04   -0.72022E-01   -0.89897E-03  2393   0.139E-01    0.591E+00
RMM:  86    -0.102619020713E+04   -0.19969E+00   -0.20757E-02  2004   0.244E-01    0.580E+00
RMM:  87    -0.102620252676E+04   -0.12320E-01   -0.39426E-03  2144   0.109E-01    0.600E+00
RMM:  88    -0.102634279296E+04   -0.14027E+00   -0.90289E-03  2117   0.180E-01    0.610E+00
RMM:  89    -0.102635322522E+04   -0.10432E-01   -0.23733E-03  2144   0.986E-02    0.590E+00
RMM:  90    -0.102647445740E+04   -0.12123E+00   -0.42602E-03  2125   0.111E-01    0.603E+00
RMM:  91    -0.102663914946E+04   -0.16469E+00   -0.11961E-02  2069   0.198E-01    0.652E+00
RMM:  92    -0.102678536701E+04   -0.14622E+00   -0.99181E-03  2216   0.174E-01    0.625E+00
RMM:  93    -0.102680887497E+04   -0.23508E-01   -0.21864E-03  2415   0.686E-02    0.622E+00
RMM:  94    -0.102678214797E+04    0.26727E-01   -0.32927E-04  2012   0.375E-02    0.625E+00
RMM:  95    -0.102702525430E+04   -0.24311E+00   -0.21234E-02  1976   0.261E-01    0.526E+00
RMM:  96    -0.102708574486E+04   -0.60491E-01   -0.19548E-02  2172   0.252E-01    0.449E+00
RMM:  97    -0.102720708019E+04   -0.12134E+00   -0.11941E-02  2302   0.179E-01    0.460E+00
RMM:  98    -0.102731973679E+04   -0.11266E+00   -0.11019E-02  2230   0.179E-01    0.480E+00
RMM:  99    -0.102751419934E+04   -0.19446E+00   -0.14831E-02  2242   0.177E-01    0.449E+00
RMM: 100    -0.102772189600E+04   -0.20770E+00   -0.31634E-02  2260   0.263E-01    0.423E+00
RMM: 101    -0.102780640354E+04   -0.84508E-01   -0.37459E-02  2240   0.356E-01    0.366E+00
RMM: 102    -0.102793654060E+04   -0.13014E+00   -0.26105E-02  2145   0.299E-01    0.302E+00
RMM: 103    -0.102797757590E+04   -0.41035E-01   -0.11787E-02  2282   0.184E-01    0.281E+00
RMM: 104    -0.102803759372E+04   -0.60018E-01   -0.70669E-03  2296   0.124E-01    0.283E+00
RMM: 105    -0.102805219167E+04   -0.14598E-01   -0.18948E-03  2448   0.584E-02    0.279E+00
RMM: 106    -0.102799921258E+04    0.52979E-01   -0.20876E-02  1993   0.246E-01    0.248E+00
RMM: 107    -0.102801406882E+04   -0.14856E-01   -0.43885E-03  2077   0.136E-01    0.282E+00
RMM: 108    -0.102801300923E+04    0.10596E-02   -0.10130E-03  2407   0.550E-02    0.291E+00
RMM: 109    -0.102801625387E+04   -0.32446E-02   -0.15275E-03  2118   0.807E-02    0.344E+00
RMM: 110    -0.102801292679E+04    0.33271E-02   -0.41291E-04  2013   0.435E-02    0.342E+00
RMM: 111    -0.102805095200E+04   -0.38025E-01   -0.42552E-03  2091   0.128E-01    0.401E+00
RMM: 112    -0.102803946008E+04    0.11492E-01   -0.69115E-04  1993   0.611E-02    0.409E+00
RMM: 113    -0.102803097357E+04    0.84865E-02   -0.38404E-04  2181   0.390E-02    0.403E+00
RMM: 114    -0.102803546323E+04   -0.44897E-02   -0.71980E-04  2155   0.543E-02    0.391E+00
RMM: 115    -0.102802690385E+04    0.85594E-02   -0.84814E-04  2064   0.585E-02    0.398E+00
RMM: 116    -0.102796393657E+04    0.62967E-01   -0.74436E-03  2078   0.160E-01    0.408E+00
RMM: 117    -0.102796866762E+04   -0.47311E-02   -0.29939E-03  2032   0.124E-01    0.403E+00
RMM: 118    -0.102799893327E+04   -0.30266E-01   -0.38510E-03  2141   0.124E-01    0.320E+00
RMM: 119    -0.102803298815E+04   -0.34055E-01   -0.71726E-03  2230   0.164E-01    0.252E+00
RMM: 120    -0.102803504286E+04   -0.20547E-02   -0.21512E-03  2381   0.784E-02
   1 F= -.10355814E+04 E0= -.10355582E+04  d E =-.103558E+04  mag=    20.6700
 curvature:   0.00 expect dE= 0.000E+00 dE for cont linesearch  0.000E+00
 trial: gam= 0.00000 g(F)=  0.426E+03 g(S)=  0.000E+00 ort = 0.000E+00 (trialstep = 0.100E+01)
 search vector abs. value=  0.426E+03
 bond charge predicted
       N       E                     dE             d eps       ncg     rms          rms(c)
DAV:   1     0.568405165474E+02    0.10849E+04   -0.61874E+04  2424   0.552E+02    0.254E+02
RMM:   2    -0.927715027704E+03   -0.98456E+03   -0.98377E+03  2591   0.213E+02    0.196E+02
RMM:   3    -0.129923766425E+04   -0.37152E+03   -0.34368E+03  3007   0.125E+02    0.444E+02
RMM:   4    -0.979865026838E+03    0.31937E+03   -0.69387E+02  2389   0.592E+01    0.263E+02
RMM:   5    -0.950235811499E+03    0.29629E+02   -0.92070E+02  2178   0.735E+01    0.274E+02
RMM:   6    -0.710653716984E+03    0.23958E+03   -0.20014E+02  2116   0.324E+01    0.178E+02
RMM:   7    -0.780586701457E+03   -0.69933E+02   -0.49226E+02  2097   0.501E+01    0.202E+02
RMM:   8    -0.670850204180E+03    0.10974E+03   -0.14418E+02  2513   0.204E+01    0.158E+02
RMM:   9    -0.704688114733E+03   -0.33838E+02   -0.11536E+02  2056   0.239E+01    0.170E+02
RMM:  10    -0.697570099123E+03    0.71180E+01   -0.16780E+02  2046   0.268E+01    0.162E+02
RMM:  11    -0.561080332292E+03    0.13649E+03   -0.80175E+01  1977   0.217E+01    0.111E+02
RMM:  12    -0.572026570714E+03   -0.10946E+02   -0.10668E+02  2042   0.229E+01    0.117E+02
RMM:  13    -0.535414737771E+03    0.36612E+02   -0.89681E+01  1960   0.236E+01    0.863E+01
RMM:  14    -0.512158800349E+03    0.23256E+02   -0.30341E+01  1999   0.121E+01    0.600E+01
RMM:  15    -0.525808091580E+03   -0.13649E+02   -0.33190E+01  1930   0.137E+01    0.804E+01
RMM:  16    -0.522625932382E+03    0.31822E+01   -0.15353E+01  2182   0.806E+00    0.735E+01
RMM:  17    -0.513550456343E+03    0.90755E+01   -0.10030E+01  2027   0.656E+00    0.481E+01
RMM:  18    -0.519392145841E+03   -0.58417E+01   -0.89097E+00  1953   0.594E+00    0.514E+01
RMM:  19    -0.521741208548E+03   -0.23491E+01   -0.13425E+01  1916   0.805E+00    0.502E+01
RMM:  20    -0.522744151577E+03   -0.10029E+01   -0.12657E+01  1973   0.725E+00    0.512E+01
RMM:  21    -0.516608208836E+03    0.61359E+01   -0.49180E+00  2021   0.473E+00    0.298E+01
RMM:  22    -0.518578327006E+03   -0.19701E+01   -0.37974E+00  1966   0.421E+00    0.368E+01
RMM:  23    -0.518851918332E+03   -0.27359E+00   -0.25551E+00  2024   0.335E+00    0.288E+01
RMM:  24    -0.518871930171E+03   -0.20012E-01   -0.23200E+00  1956   0.323E+00    0.276E+01
RMM:  25    -0.519118600693E+03   -0.24667E+00   -0.95142E-01  2073   0.178E+00    0.239E+01
RMM:  26    -0.519082547058E+03    0.36054E-01   -0.41761E-01  2061   0.121E+00    0.205E+01
RMM:  27    -0.519920964155E+03   -0.83842E+00   -0.53064E-01  1960   0.155E+00    0.211E+01
RMM:  28    -0.520201769616E+03   -0.28081E+00   -0.58341E-01  1955   0.162E+00    0.176E+01
RMM:  29    -0.520722299792E+03   -0.52053E+00   -0.70708E-01  1991   0.168E+00    0.160E+01
RMM:  30    -0.521370218466E+03   -0.64792E+00   -0.86526E-01  2052   0.168E+00    0.152E+01
RMM:  31    -0.521500980567E+03   -0.13076E+00   -0.46341E-01  2064   0.133E+00    0.126E+01
RMM:  32    -0.522146860458E+03   -0.64588E+00   -0.70161E-01  1968   0.164E+00    0.153E+01
RMM:  33    -0.522481889878E+03   -0.33503E+00   -0.77027E-01  1964   0.193E+00    0.144E+01
RMM:  34    -0.522918986849E+03   -0.43710E+00   -0.43928E-01  2078   0.131E+00    0.122E+01
RMM:  35    -0.522997082843E+03   -0.78096E-01   -0.16039E-01  2146   0.731E-01    0.916E+00
RMM:  36    -0.523617102078E+03   -0.62002E+00   -0.23211E-01  2016   0.866E-01    0.100E+01
RMM:  37    -0.523760414697E+03   -0.14331E+00   -0.98675E-02  2010   0.646E-01    0.941E+00
RMM:  38    -0.523764529641E+03   -0.41149E-02   -0.28309E-02  2455   0.239E-01    0.939E+00
RMM:  39    -0.523744330545E+03    0.20199E-01   -0.19321E-02  1972   0.290E-01    0.931E+00
RMM:  40    -0.523741733989E+03    0.25966E-02   -0.70016E-03  2442   0.122E-01    0.937E+00
RMM:  41    -0.523754250985E+03   -0.12517E-01   -0.21657E-02  1977   0.249E-01    0.897E+00
RMM:  42    -0.523644077968E+03    0.11017E+00   -0.14293E-01  2076   0.564E-01    0.789E+00
RMM:  43    -0.523684324601E+03   -0.40247E-01   -0.12040E-01  2280   0.515E-01    0.617E+00
RMM:  44    -0.523920263611E+03   -0.23594E+00   -0.99347E-02  2319   0.448E-01    0.482E+00
RMM:  45    -0.524114124935E+03   -0.19386E+00   -0.61501E-02  2295   0.363E-01    0.415E+00
RMM:  46    -0.524340867597E+03   -0.22674E+00   -0.62281E-02  2268   0.358E-01    0.361E+00
RMM:  47    -0.524455812908E+03   -0.11495E+00   -0.67390E-02  2291   0.401E-01    0.374E+00
RMM:  48    -0.524502576027E+03   -0.46763E-01   -0.19026E-02  2196   0.242E-01    0.312E+00
RMM:  49    -0.524567855106E+03   -0.65279E-01   -0.13383E-02  2389   0.165E-01    0.296E+00
RMM:  50    -0.524587217878E+03   -0.19363E-01   -0.38585E-03  2453   0.879E-02    0.291E+00
RMM:  51    -0.524632937830E+03   -0.45720E-01   -0.10215E-02  2109   0.154E-01    0.269E+00
RMM:  52    -0.524595310602E+03    0.37627E-01   -0.15014E-02  2113   0.208E-01    0.307E+00
RMM:  53    -0.524624838385E+03   -0.29528E-01   -0.68338E-03  2197   0.155E-01    0.309E+00
RMM:  54    -0.524629108634E+03   -0.42702E-02   -0.18923E-03  2387   0.673E-02    0.315E+00
RMM:  55    -0.524631225740E+03   -0.21171E-02   -0.45937E-04  2383   0.324E-02    0.316E+00
RMM:  56    -0.524629410002E+03    0.18157E-02   -0.14465E-04  2118   0.198E-02    0.322E+00
RMM:  57    -0.524687459312E+03   -0.58049E-01   -0.22979E-02  2016   0.254E-01    0.492E+00
RMM:  58    -0.524704210170E+03   -0.16751E-01   -0.20842E-02  2113   0.276E-01    0.378E+00
RMM:  59    -0.524716459451E+03   -0.12249E-01   -0.30559E-02  2175   0.291E-01    0.258E+00
RMM:  60    -0.524739992940E+03   -0.23533E-01   -0.19112E-02  2419   0.204E-01    0.224E+00
RMM:  61    -0.524773273106E+03   -0.33280E-01   -0.10428E-02  2146   0.184E-01    0.203E+00
RMM:  62    -0.524788540827E+03   -0.15268E-01   -0.22998E-02  2059   0.288E-01    0.389E+00
RMM:  63    -0.524801224761E+03   -0.12684E-01   -0.10967E-02  1963   0.232E-01    0.331E+00
RMM:  64    -0.524832470725E+03   -0.31246E-01   -0.78503E-03  2132   0.160E-01    0.291E+00
RMM:  65    -0.524847958751E+03   -0.15488E-01   -0.68730E-03  2295   0.129E-01    0.202E+00
RMM:  66    -0.524878216049E+03   -0.30257E-01   -0.36074E-03  2222   0.104E-01    0.161E+00
RMM:  67    -0.524941733384E+03   -0.63517E-01   -0.87159E-03  2110   0.163E-01    0.122E+00
RMM:  68    -0.524961698809E+03   -0.19965E-01   -0.36007E-03  2107   0.119E-01    0.902E-01
RMM:  69    -0.525001519750E+03   -0.39821E-01   -0.40514E-03  2220   0.898E-02    0.115E+00
RMM:  70    -0.525029826914E+03   -0.28307E-01   -0.39496E-03  2305   0.921E-02    0.657E-01
RMM:  71    -0.525053422409E+03   -0.23595E-01   -0.30804E-03  2384   0.717E-02    0.468E-01
RMM:  72    -0.525076955334E+03   -0.23533E-01   -0.28492E-03  2334   0.728E-02    0.590E-01
RMM:  73    -0.525086234374E+03   -0.92790E-02   -0.11390E-03  2159   0.561E-02    0.448E-01
RMM:  74    -0.525098293196E+03   -0.12059E-01   -0.15436E-03  2303   0.487E-02    0.312E-01
RMM:  75    -0.525107977860E+03   -0.96847E-02   -0.10208E-03  2432   0.325E-02    0.216E-01
RMM:  76    -0.525113736353E+03   -0.57585E-02   -0.65097E-04  2399   0.274E-02    0.137E-01
RMM:  77    -0.525116363447E+03   -0.26271E-02   -0.27369E-04  2263   0.218E-02    0.129E-01
RMM:  78    -0.525119726141E+03   -0.33627E-02   -0.36782E-04  2272   0.214E-02    0.100E-01
RMM:  79    -0.525122103032E+03   -0.23769E-02   -0.26143E-04  2322   0.163E-02    0.773E-02
RMM:  80    -0.525123972672E+03   -0.18696E-02   -0.19982E-04  2222   0.123E-02    0.711E-02
RMM:  81    -0.525125385462E+03   -0.14128E-02   -0.14728E-04  2202   0.123E-02    0.610E-02
RMM:  82    -0.525126150259E+03   -0.76480E-03   -0.68586E-05  1962   0.804E-03    0.358E-02
RMM:  83    -0.525126679147E+03   -0.52889E-03   -0.49512E-05  1886   0.651E-03    0.300E-02
RMM:  84    -0.525127174117E+03   -0.49497E-03   -0.38007E-05  1819   0.586E-03    0.427E-02
RMM:  85    -0.525127482481E+03   -0.30836E-03   -0.28578E-05  1766   0.530E-03    0.336E-02
RMM:  86    -0.525127714036E+03   -0.23156E-03   -0.21002E-05  1688   0.453E-03    0.273E-02
RMM:  87    -0.525127855469E+03   -0.14143E-03   -0.16988E-05  1656   0.399E-03    0.174E-02
RMM:  88    -0.525127974631E+03   -0.11916E-03   -0.88483E-06  1494   0.326E-03    0.115E-02
RMM:  89    -0.525128093268E+03   -0.11864E-03   -0.10505E-05  1527   0.304E-03    0.690E-03
RMM:  90    -0.525128171544E+03   -0.78276E-04   -0.73157E-06  1427   0.264E-03    0.562E-03
RMM:  91    -0.525128219911E+03   -0.48367E-04   -0.48460E-06  1367   0.228E-03    0.575E-03
RMM:  92    -0.525128243458E+03   -0.23547E-04   -0.27299E-06  1267   0.188E-03    0.377E-03
RMM:  93    -0.525128263924E+03   -0.20466E-04   -0.19803E-06  1200   0.162E-03    0.390E-03
RMM:  94    -0.525128277098E+03   -0.13174E-04   -0.21261E-06  1210   0.151E-03    0.255E-03
RMM:  95    -0.525128287620E+03   -0.10523E-04   -0.17597E-06  1155   0.142E-03    0.180E-03
RMM:  96    -0.525128292631E+03   -0.50104E-05   -0.14579E-06  1109   0.124E-03    0.113E-03
RMM:  97    -0.525128294753E+03   -0.21223E-05   -0.82198E-07  1038   0.112E-03    0.130E-03
RMM:  98    -0.525128295593E+03   -0.83970E-06   -0.57539E-07   968   0.938E-04
   2 F= -.53318693E+03 E0= -.53315681E+03  d E =0.502394E+03  mag=    11.0611
 trial-energy change:  502.394477  1 .order  520.244247 -426.031286 1466.519780
 step:   0.2353(harm=  0.2251)  dis= 0.18270  next Energy= -1085.934731 (dE=-0.504E+02)
 bond charge predicted
       N       E                     dE             d eps       ncg     rms          rms(c)
DAV:   1    -0.603464733962E+03   -0.78336E+02   -0.42446E+04  2316   0.499E+02    0.186E+02
RMM:   2    -0.124450837011E+04   -0.64104E+03   -0.64945E+03  2533   0.162E+02    0.173E+02
RMM:   3    -0.159685514717E+04   -0.35235E+03   -0.17853E+03  2658   0.864E+01    0.312E+02
RMM:   4    -0.127500368810E+04    0.32185E+03   -0.28331E+02  2137   0.426E+01    0.173E+02
RMM:   5    -0.136848043854E+04   -0.93477E+02   -0.37187E+02  2102   0.416E+01    0.204E+02
RMM:   6    -0.111935441674E+04    0.24913E+03   -0.15975E+02  2085   0.277E+01    0.129E+02
RMM:   7    -0.111340952679E+04    0.59449E+01   -0.99768E+01  2030   0.203E+01    0.130E+02
RMM:   8    -0.110343398775E+04    0.99755E+01   -0.63768E+01  2199   0.161E+01    0.133E+02
RMM:   9    -0.112294541752E+04   -0.19511E+02   -0.75092E+01  1978   0.206E+01    0.134E+02
RMM:  10    -0.112420913080E+04   -0.12637E+01   -0.81430E+01  2182   0.198E+01    0.139E+02
RMM:  11    -0.109070719877E+04    0.33502E+02   -0.51490E+01  1995   0.172E+01    0.111E+02
RMM:  12    -0.106057046215E+04    0.30137E+02   -0.24258E+01  2009   0.117E+01    0.847E+01
RMM:  13    -0.108483603127E+04   -0.24266E+02   -0.14528E+01  2048   0.849E+00    0.111E+02
RMM:  14    -0.109169690773E+04   -0.68609E+01   -0.35805E+01  2040   0.136E+01    0.106E+02
RMM:  15    -0.109363263152E+04   -0.19357E+01   -0.38031E+01  2017   0.143E+01    0.104E+02
RMM:  16    -0.106199256475E+04    0.31640E+02   -0.34348E+01  2053   0.135E+01    0.763E+01
RMM:  17    -0.105633830274E+04    0.56543E+01   -0.18758E+01  2094   0.911E+00    0.717E+01
RMM:  18    -0.104949206798E+04    0.68462E+01   -0.59365E+00  2070   0.563E+00    0.557E+01
RMM:  19    -0.104386768379E+04    0.56244E+01   -0.13212E+00  2083   0.264E+00    0.475E+01
RMM:  20    -0.104323895054E+04    0.62873E+00   -0.42861E-01  2222   0.146E+00    0.465E+01
RMM:  21    -0.104257631075E+04    0.66264E+00   -0.49536E-01  2150   0.149E+00    0.466E+01
RMM:  22    -0.104336042527E+04   -0.78411E+00   -0.21168E+00  2041   0.314E+00    0.497E+01
RMM:  23    -0.104188924183E+04    0.14712E+01   -0.18822E+00  1988   0.307E+00    0.432E+01
RMM:  24    -0.104018917995E+04    0.17001E+01   -0.90302E-01  2109   0.183E+00    0.381E+01
RMM:  25    -0.103997022195E+04    0.21896E+00   -0.97996E-01  2024   0.191E+00    0.376E+01
RMM:  26    -0.103958126081E+04    0.38896E+00   -0.94371E-01  2033   0.201E+00    0.368E+01
RMM:  27    -0.103988479004E+04   -0.30353E+00   -0.96568E-01  2081   0.193E+00    0.356E+01
RMM:  28    -0.104096316922E+04   -0.10784E+01   -0.27624E+00  1980   0.355E+00    0.458E+01
RMM:  29    -0.103953689636E+04    0.14263E+01   -0.14979E+00  2068   0.254E+00    0.384E+01
RMM:  30    -0.103748207896E+04    0.20548E+01   -0.17764E+00  2016   0.294E+00    0.389E+01
RMM:  31    -0.103624517635E+04    0.12369E+01   -0.82047E-01  2087   0.192E+00    0.315E+01
RMM:  32    -0.103660408832E+04   -0.35891E+00   -0.11041E+00  2009   0.225E+00    0.348E+01
RMM:  33    -0.103621833944E+04    0.38575E+00   -0.10267E+00  2000   0.227E+00    0.304E+01
RMM:  34    -0.103640648347E+04   -0.18814E+00   -0.35623E-01  2299   0.107E+00    0.309E+01
RMM:  35    -0.103625739468E+04    0.14909E+00   -0.13589E-01  2144   0.731E-01    0.280E+01
RMM:  36    -0.103654165199E+04   -0.28426E+00   -0.40942E-01  1969   0.120E+00    0.246E+01
RMM:  37    -0.103657804454E+04   -0.36393E-01   -0.25675E-01  2098   0.106E+00    0.239E+01
RMM:  38    -0.103662670943E+04   -0.48665E-01   -0.89854E-02  2141   0.607E-01    0.239E+01
RMM:  39    -0.103663794652E+04   -0.11237E-01   -0.20961E-02  2393   0.220E-01    0.240E+01
RMM:  40    -0.103683087521E+04   -0.19293E+00   -0.87721E-02  1982   0.580E-01    0.226E+01
RMM:  41    -0.103712316214E+04   -0.29229E+00   -0.22968E-01  2034   0.865E-01    0.197E+01
RMM:  42    -0.103746743289E+04   -0.34427E+00   -0.27202E-01  2297   0.922E-01    0.166E+01
RMM:  43    -0.103777221434E+04   -0.30478E+00   -0.16872E-01  2129   0.774E-01    0.157E+01
RMM:  44    -0.103798514485E+04   -0.21293E+00   -0.77536E-02  2426   0.427E-01    0.147E+01
RMM:  45    -0.103804755166E+04   -0.62407E-01   -0.21064E-02  2343   0.243E-01    0.143E+01
RMM:  46    -0.103805707008E+04   -0.95184E-02   -0.61977E-03  2360   0.120E-01    0.143E+01
RMM:  47    -0.103821194427E+04   -0.15487E+00   -0.78992E-01  1984   0.164E+00    0.175E+01
RMM:  48    -0.103834189243E+04   -0.12995E+00   -0.11934E-01  2108   0.690E-01    0.173E+01
RMM:  49    -0.103840081000E+04   -0.58918E-01   -0.36904E-02  2432   0.330E-01    0.168E+01
RMM:  50    -0.103863393371E+04   -0.23312E+00   -0.75585E-02  2000   0.532E-01    0.170E+01
RMM:  51    -0.103877651353E+04   -0.14258E+00   -0.96195E-02  2089   0.608E-01    0.152E+01
RMM:  52    -0.104106898247E+04   -0.22925E+01   -0.13318E+00  2076   0.220E+00    0.306E+01
RMM:  53    -0.103997039931E+04    0.10986E+01   -0.44153E-01  1986   0.148E+00    0.208E+01
RMM:  54    -0.103997639619E+04   -0.59969E-02   -0.18149E-01  2212   0.833E-01    0.188E+01
RMM:  55    -0.104006377269E+04   -0.87376E-01   -0.74349E-02  2210   0.542E-01    0.175E+01
RMM:  56    -0.104024149572E+04   -0.17772E+00   -0.59720E-02  2217   0.439E-01    0.175E+01
RMM:  57    -0.104058892257E+04   -0.34743E+00   -0.49580E-01  1971   0.145E+00    0.228E+01
RMM:  58    -0.104026839580E+04    0.32053E+00   -0.10972E-01  2051   0.750E-01    0.198E+01
RMM:  59    -0.104031402209E+04   -0.45626E-01   -0.47275E-02  2328   0.390E-01    0.197E+01
RMM:  60    -0.104004670684E+04    0.26732E+00   -0.39493E-02  2025   0.403E-01    0.190E+01
RMM:  61    -0.103961776375E+04    0.42894E+00   -0.44809E-02  2084   0.433E-01    0.189E+01
RMM:  62    -0.104063613110E+04   -0.10184E+01   -0.62026E-01  1986   0.160E+00    0.244E+01
RMM:  63    -0.103981233945E+04    0.82379E+00   -0.19328E-01  1968   0.996E-01    0.198E+01
RMM:  64    -0.103887049469E+04    0.94184E+00   -0.16193E-01  2004   0.921E-01    0.178E+01
RMM:  65    -0.103856611700E+04    0.30438E+00   -0.91029E-02  2193   0.628E-01    0.174E+01
RMM:  66    -0.103805981487E+04    0.50630E+00   -0.10935E-01  2085   0.692E-01    0.176E+01
RMM:  67    -0.103753688885E+04    0.52293E+00   -0.11447E-01  2031   0.714E-01    0.189E+01
RMM:  68    -0.103685874247E+04    0.67815E+00   -0.74380E-02  2081   0.584E-01    0.192E+01
RMM:  69    -0.103685924328E+04   -0.50081E-03   -0.13541E-02  2409   0.190E-01    0.192E+01
RMM:  70    -0.103682370967E+04    0.35534E-01   -0.30890E-03  2316   0.946E-02    0.192E+01
RMM:  71    -0.103687060514E+04   -0.46895E-01   -0.70712E-04  2242   0.475E-02    0.192E+01
RMM:  72    -0.103660009721E+04    0.27051E+00   -0.96208E-02  1956   0.674E-01    0.209E+01
RMM:  73    -0.103665194153E+04   -0.51844E-01   -0.12604E-01  2021   0.756E-01    0.220E+01
RMM:  74    -0.103641547543E+04    0.23647E+00   -0.32690E-02  2066   0.395E-01    0.207E+01
RMM:  75    -0.103542896212E+04    0.98651E+00   -0.37861E-02  1969   0.418E-01    0.200E+01
RMM:  76    -0.103522002490E+04    0.20894E+00   -0.10712E-02  2204   0.215E-01    0.202E+01
RMM:  77    -0.103636509885E+04   -0.11451E+01   -0.11447E-01  1976   0.729E-01    0.228E+01
RMM:  78    -0.103671910712E+04   -0.35401E+00   -0.84731E-02  2002   0.653E-01    0.211E+01
RMM:  79    -0.103704579418E+04   -0.32669E+00   -0.31635E-02  2370   0.352E-01    0.212E+01
RMM:  80    -0.103706995970E+04   -0.24166E-01   -0.79231E-03  2383   0.151E-01    0.212E+01
RMM:  81    -0.103709760253E+04   -0.27643E-01   -0.41980E-03  2144   0.113E-01    0.213E+01
RMM:  82    -0.103950378531E+04   -0.24062E+01   -0.66057E-01  1962   0.174E+00    0.216E+01
RMM:  83    -0.103933804485E+04    0.16574E+00   -0.18970E-01  2021   0.999E-01    0.177E+01
RMM:  84    -0.103971088770E+04   -0.37284E+00   -0.17896E-01  2197   0.843E-01    0.163E+01
RMM:  85    -0.104022146980E+04   -0.51058E+00   -0.20124E-01  2191   0.852E-01    0.157E+01
RMM:  86    -0.104055557249E+04   -0.33410E+00   -0.16125E-01  2191   0.784E-01    0.141E+01
RMM:  87    -0.104213233341E+04   -0.15768E+01   -0.11102E+00  1972   0.213E+00    0.238E+01
RMM:  88    -0.104149165423E+04    0.64068E+00   -0.34530E-01  2009   0.133E+00    0.216E+01
RMM:  89    -0.104143896222E+04    0.52692E-01   -0.78488E-02  2440   0.477E-01    0.188E+01
RMM:  90    -0.104138388632E+04    0.55076E-01   -0.32016E-02  2184   0.358E-01    0.178E+01
RMM:  91    -0.104145019036E+04   -0.66304E-01   -0.17086E-02  2387   0.236E-01    0.178E+01
RMM:  92    -0.104140408482E+04    0.46106E-01   -0.24973E-01  2062   0.970E-01    0.169E+01
RMM:  93    -0.104138671395E+04    0.17371E-01   -0.11353E-01  2288   0.688E-01    0.148E+01
RMM:  94    -0.104147186720E+04   -0.85153E-01   -0.50738E-02  2272   0.443E-01    0.148E+01
RMM:  95    -0.104146140096E+04    0.10466E-01   -0.27723E-02  2390   0.280E-01    0.133E+01
RMM:  96    -0.104166112120E+04   -0.19972E+00   -0.45217E-02  2170   0.448E-01    0.159E+01
RMM:  97    -0.104183152996E+04   -0.17041E+00   -0.68558E-02  2182   0.529E-01    0.185E+01
RMM:  98    -0.104188288591E+04   -0.51356E-01   -0.26055E-02  2131   0.375E-01    0.198E+01
RMM:  99    -0.104188583965E+04   -0.29537E-02   -0.10282E-02  2204   0.221E-01    0.204E+01
RMM: 100    -0.104185172321E+04    0.34116E-01   -0.47799E-03  2223   0.141E-01    0.203E+01
RMM: 101    -0.104190520555E+04   -0.53482E-01   -0.36360E-03  2350   0.106E-01    0.205E+01
RMM: 102    -0.104195481955E+04   -0.49614E-01   -0.96976E-02  2097   0.645E-01    0.200E+01
RMM: 103    -0.104202071839E+04   -0.65899E-01   -0.31975E-02  2077   0.385E-01    0.199E+01
RMM: 104    -0.104206354932E+04   -0.42831E-01   -0.18311E-02  2121   0.321E-01    0.203E+01
RMM: 105    -0.104207899692E+04   -0.15448E-01   -0.82573E-03  2085   0.216E-01    0.206E+01
RMM: 106    -0.104205803399E+04    0.20963E-01   -0.10995E-02  2044   0.235E-01    0.219E+01
RMM: 107    -0.104194668511E+04    0.11135E+00   -0.94576E-02  2051   0.633E-01    0.235E+01
RMM: 108    -0.104192638041E+04    0.20305E-01   -0.41833E-02  2083   0.435E-01    0.239E+01
RMM: 109    -0.104195376707E+04   -0.27387E-01   -0.77076E-03  2407   0.145E-01    0.241E+01
RMM: 110    -0.104185687241E+04    0.96895E-01   -0.42486E-03  2295   0.120E-01    0.239E+01
RMM: 111    -0.104175641914E+04    0.10045E+00   -0.94041E-03  2152   0.182E-01    0.232E+01
RMM: 112    -0.104151051436E+04    0.24590E+00   -0.13232E+00  2073   0.242E+00    0.255E+01
RMM: 113    -0.104103519717E+04    0.47532E+00   -0.37148E-01  2045   0.143E+00    0.130E+01
RMM: 114    -0.104110368026E+04   -0.68483E-01   -0.23564E-01  2080   0.106E+00    0.109E+01
RMM: 115    -0.104117437760E+04   -0.70697E-01   -0.65493E-02  2217   0.524E-01    0.128E+01
RMM: 116    -0.104115938757E+04    0.14990E-01   -0.15527E-02  2412   0.225E-01    0.131E+01
RMM: 117    -0.104141210058E+04   -0.25271E+00   -0.36385E-01  1970   0.132E+00    0.133E+01
RMM: 118    -0.104137545644E+04    0.36644E-01   -0.18142E-01  2111   0.931E-01    0.120E+01
RMM: 119    -0.104155295392E+04   -0.17750E+00   -0.15384E-01  2062   0.806E-01    0.140E+01
RMM: 120    -0.104146852602E+04    0.84428E-01   -0.11558E-01  2187   0.673E-01
   3 F= -.10490608E+04 E0= -.10490526E+04  d E =-.134793E+02  mag=     5.0900
 curvature:  -0.11 expect dE=-0.256E+02 dE for cont linesearch -0.834E+01
 ZBRENT: interpolating
 opt :   0.1660  next Energy= -1055.212233 (dE=-0.196E+02)
 bond charge predicted
       N       E                     dE             d eps       ncg     rms          rms(c)
DAV:   1    -0.104881330177E+04   -0.72603E+01   -0.59795E+02  2034   0.586E+01    0.207E+01
RMM:   2    -0.108390146129E+04   -0.35088E+02   -0.42038E+01  1958   0.163E+01    0.872E+01
RMM:   3    -0.106323687885E+04    0.20665E+02   -0.19139E+01  2065   0.110E+01    0.540E+01
RMM:   4    -0.105162014850E+04    0.11617E+02   -0.54020E+00  2237   0.533E+00    0.234E+01
RMM:   5    -0.105356278651E+04   -0.19426E+01   -0.66373E+00  2082   0.515E+00    0.373E+01
RMM:   6    -0.105089092274E+04    0.26719E+01   -0.25751E+00  2102   0.344E+00    0.230E+01
RMM:   7    -0.105100402817E+04   -0.11311E+00   -0.16340E+00  2059   0.276E+00    0.260E+01
RMM:   8    -0.105060009596E+04    0.40393E+00   -0.10125E+00  2142   0.200E+00    0.209E+01
RMM:   9    -0.105004703549E+04    0.55306E+00   -0.54282E-01  2057   0.159E+00    0.132E+01
RMM:  10    -0.105076733720E+04   -0.72030E+00   -0.78463E-01  2083   0.181E+00    0.246E+01
RMM:  11    -0.104981050098E+04    0.95684E+00   -0.46918E-01  2078   0.149E+00    0.115E+01
RMM:  12    -0.104981378424E+04   -0.32833E-02   -0.30774E-01  2068   0.118E+00    0.111E+01
RMM:  13    -0.105005887929E+04   -0.24510E+00   -0.42740E-01  2107   0.132E+00    0.158E+01
RMM:  14    -0.104974727115E+04    0.31161E+00   -0.38258E-01  2054   0.131E+00    0.202E+01
RMM:  15    -0.104947155586E+04    0.27572E+00   -0.32217E-01  2058   0.117E+00    0.111E+01
RMM:  16    -0.104954871213E+04   -0.77156E-01   -0.27670E-01  2101   0.106E+00    0.117E+01
RMM:  17    -0.104951708155E+04    0.31631E-01   -0.18555E-01  2088   0.905E-01    0.988E+00
RMM:  18    -0.104961514070E+04   -0.98059E-01   -0.22540E-01  2022   0.983E-01    0.936E+00
RMM:  19    -0.104951806545E+04    0.97075E-01   -0.10007E-01  2045   0.684E-01    0.628E+00
RMM:  20    -0.104960595905E+04   -0.87894E-01   -0.39784E-02  2061   0.433E-01    0.715E+00
RMM:  21    -0.104966629888E+04   -0.60340E-01   -0.16559E-02  2227   0.252E-01    0.694E+00
RMM:  22    -0.104963243572E+04    0.33863E-01   -0.42104E-03  2091   0.121E-01    0.721E+00
RMM:  23    -0.104981134662E+04   -0.17891E+00   -0.46141E-02  2001   0.388E-01    0.556E+00
RMM:  24    -0.105009885556E+04   -0.28751E+00   -0.85833E-02  2178   0.520E-01    0.659E+00
RMM:  25    -0.105007939797E+04    0.19458E-01   -0.48851E-02  2014   0.501E-01    0.505E+00
RMM:  26    -0.105010523678E+04   -0.25839E-01   -0.16056E-02  2332   0.219E-01    0.344E+00
RMM:  27    -0.105026316285E+04   -0.15793E+00   -0.17196E-02  2056   0.237E-01    0.381E+00
RMM:  28    -0.105045305182E+04   -0.18989E+00   -0.37139E-02  2196   0.308E-01    0.307E+00
RMM:  29    -0.105058820181E+04   -0.13515E+00   -0.30575E-02  2264   0.260E-01    0.277E+00
RMM:  30    -0.105068784390E+04   -0.99642E-01   -0.24410E-02  2284   0.234E-01    0.283E+00
RMM:  31    -0.105070725914E+04   -0.19415E-01   -0.84257E-03  2275   0.157E-01    0.311E+00
RMM:  32    -0.105071129040E+04   -0.40313E-02   -0.32674E-03  2291   0.985E-02    0.320E+00
RMM:  33    -0.105071318329E+04   -0.18929E-02   -0.14090E-03  2371   0.574E-02    0.308E+00
RMM:  34    -0.105071481293E+04   -0.16296E-02   -0.86528E-04  2327   0.494E-02    0.279E+00
RMM:  35    -0.105071480750E+04    0.54305E-05   -0.22897E-03  2121   0.873E-02    0.217E+00
RMM:  36    -0.105074200409E+04   -0.27197E-01   -0.34047E-03  2170   0.104E-01    0.152E+00
RMM:  37    -0.105077684455E+04   -0.34840E-01   -0.40297E-03  2194   0.111E-01    0.206E+00
RMM:  38    -0.105079090589E+04   -0.14061E-01   -0.38642E-03  2313   0.942E-02    0.182E+00
RMM:  39    -0.105079736894E+04   -0.64631E-02   -0.17632E-03  2467   0.489E-02    0.153E+00
RMM:  40    -0.105080945955E+04   -0.12091E-01   -0.16499E-03  2267   0.575E-02    0.154E+00
RMM:  41    -0.105082221596E+04   -0.12756E-01   -0.23382E-03  2347   0.679E-02    0.136E+00
RMM:  42    -0.105082898413E+04   -0.67682E-02   -0.20565E-03  2423   0.612E-02    0.998E-01
RMM:  43    -0.105083988870E+04   -0.10905E-01   -0.17763E-03  2375   0.634E-02    0.118E+00
RMM:  44    -0.105084541549E+04   -0.55268E-02   -0.14901E-03  2425   0.546E-02    0.109E+00
RMM:  45    -0.105085103571E+04   -0.56202E-02   -0.16909E-03  2384   0.572E-02    0.696E-01
RMM:  46    -0.105085237281E+04   -0.13371E-02   -0.68541E-04  2383   0.397E-02    0.647E-01
RMM:  47    -0.105084807413E+04    0.42987E-02   -0.20972E-03  2168   0.706E-02    0.422E-01
RMM:  48    -0.105085504358E+04   -0.69695E-02   -0.44309E-04  2180   0.403E-02    0.405E-01
RMM:  49    -0.105086076568E+04   -0.57221E-02   -0.37065E-04  2364   0.231E-02    0.382E-01
RMM:  50    -0.105086652929E+04   -0.57636E-02   -0.32023E-04  2249   0.231E-02    0.415E-01
RMM:  51    -0.105087079214E+04   -0.42628E-02   -0.41168E-04  2266   0.266E-02    0.246E-01
RMM:  52    -0.105087110844E+04   -0.31630E-03   -0.10324E-04  2030   0.169E-02    0.241E-01
RMM:  53    -0.105087240862E+04   -0.13002E-02   -0.91823E-05  2087   0.120E-02    0.210E-01
RMM:  54    -0.105087436339E+04   -0.19548E-02   -0.13207E-04  2160   0.143E-02    0.137E-01
RMM:  55    -0.105087633576E+04   -0.19724E-02   -0.17456E-04  2128   0.129E-02    0.116E-01
RMM:  56    -0.105087775855E+04   -0.14228E-02   -0.15156E-04  2150   0.115E-02    0.117E-01
RMM:  57    -0.105087872777E+04   -0.96923E-03   -0.17541E-04  2176   0.128E-02    0.691E-02
RMM:  58    -0.105087899830E+04   -0.27053E-03   -0.46689E-05  1863   0.861E-03    0.580E-02
RMM:  59    -0.105087922685E+04   -0.22855E-03   -0.46541E-05  1957   0.675E-03    0.458E-02
RMM:  60    -0.105087933652E+04   -0.10967E-03   -0.23903E-05  1788   0.610E-03    0.397E-02
RMM:  61    -0.105087938943E+04   -0.52910E-04   -0.14152E-05  1683   0.417E-03    0.402E-02
RMM:  62    -0.105087942909E+04   -0.39661E-04   -0.92569E-06  1498   0.494E-03    0.282E-02
RMM:  63    -0.105087944955E+04   -0.20455E-04   -0.22632E-06  1250   0.299E-03    0.235E-02
RMM:  64    -0.105087946089E+04   -0.11341E-04   -0.26927E-06  1245   0.242E-03    0.199E-02
RMM:  65    -0.105087946256E+04   -0.16705E-05   -0.25597E-06  1233   0.231E-03    0.137E-02
RMM:  66    -0.105087945827E+04    0.42877E-05   -0.24251E-06  1219   0.211E-03    0.954E-03
RMM:  67    -0.105087946048E+04   -0.22079E-05   -0.18624E-06  1185   0.208E-03    0.752E-03
RMM:  68    -0.105087946290E+04   -0.24157E-05   -0.98064E-07  1092   0.174E-03    0.564E-03
RMM:  69    -0.105087947042E+04   -0.75270E-05   -0.62257E-07  1032   0.132E-03    0.345E-03
RMM:  70    -0.105087947803E+04   -0.76084E-05   -0.61455E-07  1037   0.120E-03    0.301E-03
RMM:  71    -0.105087948468E+04   -0.66523E-05   -0.64438E-07  1038   0.114E-03    0.312E-03
RMM:  72    -0.105087949085E+04   -0.61620E-05   -0.47416E-07  1018   0.102E-03    0.169E-03
RMM:  73    -0.105087949526E+04   -0.44179E-05   -0.39959E-07   986   0.880E-04    0.249E-03
RMM:  74    -0.105087949767E+04   -0.24107E-05   -0.31662E-07   968   0.800E-04    0.234E-03
RMM:  75    -0.105087950025E+04   -0.25779E-05   -0.32719E-07   944   0.701E-04    0.970E-04
RMM:  76    -0.105087950168E+04   -0.14313E-05   -0.28446E-07   908   0.694E-04    0.629E-04
RMM:  77    -0.105087950218E+04   -0.49550E-06   -0.20857E-07   813   0.611E-04
   4 F= -.10584559E+04 E0= -.10584428E+04  d E =-.228744E+02  mag=     4.9718
 curvature:  -0.08 expect dE=-0.822E+01 dE for cont linesearch -0.964E+00
 ZBRENT: interpolating
 opt :   0.1271  next Energy= -1060.019309 (dE=-0.244E+02)
 bond charge predicted
       N       E                     dE             d eps       ncg     rms          rms(c)
DAV:   1    -0.105172106615E+04   -0.84156E+00   -0.19339E+02  1992   0.331E+01    0.690E+00
RMM:   2    -0.105227524373E+04   -0.55418E+00   -0.57616E+00  2074   0.569E+00    0.828E+00
RMM:   3    -0.105365374370E+04   -0.13785E+01   -0.18487E+00  2320   0.311E+00    0.251E+01
RMM:   4    -0.105245159428E+04    0.12021E+01   -0.80470E-01  2279   0.196E+00    0.110E+01
RMM:   5    -0.105219424009E+04    0.25735E+00   -0.34853E-01  2269   0.120E+00    0.971E+00
RMM:   6    -0.105218298048E+04    0.11260E-01   -0.12987E-01  2151   0.708E-01    0.718E+00
RMM:   7    -0.105226578229E+04   -0.82802E-01   -0.17124E-01  2164   0.827E-01    0.101E+01
RMM:   8    -0.105219140034E+04    0.74382E-01   -0.12577E-01  2084   0.804E-01    0.101E+01
RMM:   9    -0.105215155258E+04    0.39848E-01   -0.90016E-02  2144   0.621E-01    0.929E+00
RMM:  10    -0.105201205857E+04    0.13949E+00   -0.10756E-01  2187   0.632E-01    0.571E+00
RMM:  11    -0.105195980258E+04    0.52256E-01   -0.74887E-02  2115   0.577E-01    0.416E+00
RMM:  12    -0.105200528423E+04   -0.45482E-01   -0.67419E-02  2139   0.521E-01    0.617E+00
RMM:  13    -0.105199359569E+04    0.11689E-01   -0.32128E-02  2093   0.377E-01    0.466E+00
RMM:  14    -0.105201663278E+04   -0.23037E-01   -0.17557E-02  2132   0.252E-01    0.483E+00
RMM:  15    -0.105202738499E+04   -0.10752E-01   -0.19588E-02  2088   0.285E-01    0.396E+00
RMM:  16    -0.105206134536E+04   -0.33960E-01   -0.27295E-02  2163   0.302E-01    0.348E+00
RMM:  17    -0.105208119485E+04   -0.19849E-01   -0.15280E-02  2215   0.220E-01    0.299E+00
RMM:  18    -0.105209536290E+04   -0.14168E-01   -0.39216E-03  2155   0.127E-01    0.286E+00
RMM:  19    -0.105210743558E+04   -0.12073E-01   -0.19855E-03  2279   0.721E-02    0.268E+00
RMM:  20    -0.105212824481E+04   -0.20809E-01   -0.71938E-03  2170   0.138E-01    0.180E+00
RMM:  21    -0.105213915039E+04   -0.10906E-01   -0.61104E-03  2216   0.138E-01    0.996E-01
RMM:  22    -0.105214542892E+04   -0.62785E-02   -0.30868E-03  2295   0.910E-02    0.721E-01
RMM:  23    -0.105214769853E+04   -0.22696E-02   -0.10737E-03  2232   0.524E-02    0.797E-01
RMM:  24    -0.105214852449E+04   -0.82596E-03   -0.42491E-04  2284   0.254E-02    0.774E-01
RMM:  25    -0.105215003812E+04   -0.15136E-02   -0.58843E-04  2229   0.380E-02    0.471E-01
RMM:  26    -0.105215131862E+04   -0.12805E-02   -0.85401E-04  2183   0.531E-02    0.473E-01
RMM:  27    -0.105215129547E+04    0.23160E-04   -0.74041E-04  2226   0.498E-02    0.569E-01
RMM:  28    -0.105214950822E+04    0.17872E-02   -0.74216E-04  2282   0.383E-02    0.519E-01
RMM:  29    -0.105214834948E+04    0.11587E-02   -0.41023E-04  2228   0.319E-02    0.365E-01
RMM:  30    -0.105214771303E+04    0.63645E-03   -0.23536E-04  2217   0.255E-02    0.325E-01
RMM:  31    -0.105214736034E+04    0.35270E-03   -0.12522E-04  2024   0.191E-02    0.305E-01
RMM:  32    -0.105214703407E+04    0.32627E-03   -0.14617E-04  2086   0.204E-02    0.188E-01
RMM:  33    -0.105214716457E+04   -0.13050E-03   -0.13515E-04  2030   0.201E-02    0.148E-01
RMM:  34    -0.105214792130E+04   -0.75673E-03   -0.70482E-05  1974   0.126E-02    0.168E-01
RMM:  35    -0.105214835675E+04   -0.43546E-03   -0.36111E-05  1770   0.922E-03    0.160E-01
RMM:  36    -0.105214891346E+04   -0.55671E-03   -0.40769E-05  1838   0.914E-03    0.135E-01
RMM:  37    -0.105214990323E+04   -0.98977E-03   -0.82918E-05  1966   0.120E-02    0.952E-02
RMM:  38    -0.105215047181E+04   -0.56859E-03   -0.48883E-05  1824   0.947E-03    0.645E-02
RMM:  39    -0.105215081294E+04   -0.34113E-03   -0.25456E-05  1684   0.694E-03    0.578E-02
RMM:  40    -0.105215150060E+04   -0.68766E-03   -0.29655E-05  1731   0.590E-03    0.423E-02
RMM:  41    -0.105215263831E+04   -0.11377E-02   -0.66071E-05  1812   0.692E-03    0.246E-02
RMM:  42    -0.105215335242E+04   -0.71411E-03   -0.59486E-05  1919   0.678E-03    0.220E-02
RMM:  43    -0.105215373031E+04   -0.37789E-03   -0.32156E-05  1711   0.490E-03    0.256E-02
RMM:  44    -0.105215388591E+04   -0.15559E-03   -0.13336E-05  1560   0.384E-03    0.198E-02
RMM:  45    -0.105215398249E+04   -0.96587E-04   -0.96897E-06  1503   0.321E-03    0.124E-02
RMM:  46    -0.105215402848E+04   -0.45991E-04   -0.55281E-06  1416   0.279E-03    0.897E-03
RMM:  47    -0.105215404347E+04   -0.14987E-04   -0.28067E-06  1270   0.212E-03    0.669E-03
RMM:  48    -0.105215405061E+04   -0.71408E-05   -0.20350E-06  1192   0.189E-03    0.361E-03
RMM:  49    -0.105215405096E+04   -0.35009E-06   -0.11903E-06  1104   0.148E-03
   5 F= -.10597231E+04 E0= -.10597080E+04  d E =-.241416E+02  mag=     4.9172
 curvature:  -0.13 expect dE=-0.834E+01 dE for cont linesearch -0.196E-01
 trial: gam= 0.12685 g(F)=  0.619E+02 g(S)=  0.000E+00 ort = 0.787E+01 (trialstep = 0.825E+00)
 search vector abs. value=  0.708E+02
 bond charge predicted
       N       E                     dE             d eps       ncg     rms          rms(c)
DAV:   1    -0.990086356725E+03    0.62068E+02   -0.11707E+04  1962   0.274E+02    0.811E+01
RMM:   2    -0.106673149926E+04   -0.76645E+02   -0.86180E+02  2383   0.693E+01    0.575E+01
RMM:   3    -0.114487905760E+04   -0.78148E+02   -0.22971E+02  2119   0.372E+01    0.133E+02
RMM:   4    -0.109784448578E+04    0.47035E+02   -0.54636E+01  2154   0.188E+01    0.797E+01
RMM:   5    -0.108229294703E+04    0.15552E+02   -0.24122E+01  2138   0.112E+01    0.836E+01
RMM:   6    -0.107357533007E+04    0.87176E+01   -0.22570E+01  2110   0.930E+00    0.750E+01
RMM:   7    -0.106195011973E+04    0.11625E+02   -0.10231E+01  2149   0.650E+00    0.496E+01
RMM:   8    -0.106221253031E+04   -0.26241E+00   -0.70971E+00  2142   0.551E+00    0.448E+01
RMM:   9    -0.106124477324E+04    0.96776E+00   -0.41591E+00  2255   0.410E+00    0.414E+01
RMM:  10    -0.105876264232E+04    0.24821E+01   -0.28186E+00  2158   0.368E+00    0.313E+01
RMM:  11    -0.105989509370E+04   -0.11325E+01   -0.23371E+00  2140   0.318E+00    0.373E+01
RMM:  12    -0.105801443598E+04    0.18807E+01   -0.15751E+00  2194   0.263E+00    0.225E+01
RMM:  13    -0.105901433701E+04   -0.99990E+00   -0.19298E+00  2105   0.286E+00    0.303E+01
RMM:  14    -0.105820899681E+04    0.80534E+00   -0.12950E+00  2241   0.230E+00    0.217E+01
RMM:  15    -0.105816544679E+04    0.43550E-01   -0.14973E+00  2140   0.252E+00    0.176E+01
RMM:  16    -0.105755376412E+04    0.61168E+00   -0.11191E+00  2228   0.229E+00    0.130E+01
RMM:  17    -0.105748405668E+04    0.69707E-01   -0.11572E+00  2345   0.214E+00    0.156E+01
RMM:  18    -0.105754389167E+04   -0.59835E-01   -0.71000E-01  2178   0.178E+00    0.139E+01
RMM:  19    -0.105736950889E+04    0.17438E+00   -0.42796E-01  2182   0.139E+00    0.876E+00
RMM:  20    -0.105736951548E+04   -0.65950E-05   -0.18040E-01  2076   0.936E-01    0.552E+00
RMM:  21    -0.105744947998E+04   -0.79965E-01   -0.13896E-01  2241   0.743E-01    0.479E+00
RMM:  22    -0.105749355985E+04   -0.44080E-01   -0.11827E-01  2133   0.718E-01    0.348E+00
RMM:  23    -0.105751777557E+04   -0.24216E-01   -0.90528E-02  2238   0.592E-01    0.330E+00
RMM:  24    -0.105751149164E+04    0.62839E-02   -0.30583E-02  2261   0.338E-01    0.236E+00
RMM:  25    -0.105752293379E+04   -0.11442E-01   -0.28943E-02  2252   0.329E-01    0.214E+00
RMM:  26    -0.105752282496E+04    0.10884E-03   -0.13846E-02  2222   0.235E-01    0.170E+00
RMM:  27    -0.105752782085E+04   -0.49959E-02   -0.12593E-02  2265   0.218E-01    0.153E+00
RMM:  28    -0.105752968711E+04   -0.18663E-02   -0.53282E-03  2255   0.144E-01    0.130E+00
RMM:  29    -0.105753073266E+04   -0.10456E-02   -0.19375E-03  2351   0.771E-02    0.121E+00
RMM:  30    -0.105753307873E+04   -0.23461E-02   -0.27785E-03  2189   0.985E-02    0.986E-01
RMM:  31    -0.105753470008E+04   -0.16213E-02   -0.19322E-03  2242   0.858E-02    0.863E-01
RMM:  32    -0.105753639747E+04   -0.16974E-02   -0.89170E-04  2384   0.512E-02    0.754E-01
RMM:  33    -0.105753916159E+04   -0.27641E-02   -0.85631E-04  2231   0.551E-02    0.643E-01
RMM:  34    -0.105754247307E+04   -0.33115E-02   -0.92101E-04  2198   0.580E-02    0.482E-01
RMM:  35    -0.105754649313E+04   -0.40201E-02   -0.59208E-04  2413   0.362E-02    0.383E-01
RMM:  36    -0.105755049109E+04   -0.39980E-02   -0.44250E-04  2422   0.299E-02    0.290E-01
RMM:  37    -0.105755336819E+04   -0.28771E-02   -0.29505E-04  2359   0.265E-02    0.235E-01
RMM:  38    -0.105755719155E+04   -0.38234E-02   -0.39105E-04  2338   0.267E-02    0.166E-01
RMM:  39    -0.105755957756E+04   -0.23860E-02   -0.24629E-04  2393   0.199E-02    0.135E-01
RMM:  40    -0.105756097579E+04   -0.13982E-02   -0.13197E-04  2245   0.150E-02    0.120E-01
RMM:  41    -0.105756257728E+04   -0.16015E-02   -0.14808E-04  2253   0.148E-02    0.883E-02
RMM:  42    -0.105756368531E+04   -0.11080E-02   -0.10446E-04  2197   0.108E-02    0.675E-02
RMM:  43    -0.105756484671E+04   -0.11614E-02   -0.10613E-04  2197   0.104E-02    0.529E-02
RMM:  44    -0.105756535487E+04   -0.50816E-03   -0.42888E-05  1942   0.717E-03    0.394E-02
RMM:  45    -0.105756573091E+04   -0.37604E-03   -0.27907E-05  1809   0.513E-03    0.363E-02
RMM:  46    -0.105756601831E+04   -0.28740E-03   -0.18636E-05  1769   0.505E-03    0.258E-02
RMM:  47    -0.105756628822E+04   -0.26991E-03   -0.21737E-05  1803   0.494E-03    0.183E-02
RMM:  48    -0.105756641355E+04   -0.12533E-03   -0.88464E-06  1612   0.427E-03    0.144E-02
RMM:  49    -0.105756651947E+04   -0.10592E-03   -0.82378E-06  1563   0.304E-03    0.100E-02
RMM:  50    -0.105756661895E+04   -0.99484E-04   -0.80083E-06  1552   0.348E-03    0.891E-03
RMM:  51    -0.105756665563E+04   -0.36678E-04   -0.36802E-06  1384   0.228E-03    0.517E-03
RMM:  52    -0.105756667861E+04   -0.22983E-04   -0.22613E-06  1253   0.252E-03    0.437E-03
RMM:  53    -0.105756668556E+04   -0.69426E-05   -0.91859E-07  1165   0.161E-03    0.227E-03
RMM:  54    -0.105756669709E+04   -0.11535E-04   -0.70626E-07  1118   0.125E-03    0.185E-03
RMM:  55    -0.105756671446E+04   -0.17370E-04   -0.11274E-06  1143   0.124E-03    0.130E-03
RMM:  56    -0.105756672534E+04   -0.10878E-04   -0.97948E-07  1084   0.121E-03    0.854E-04
RMM:  57    -0.105756673173E+04   -0.63945E-05   -0.71423E-07  1033   0.106E-03    0.996E-04
RMM:  58    -0.105756673561E+04   -0.38723E-05   -0.54073E-07   977   0.983E-04    0.541E-04
RMM:  59    -0.105756673885E+04   -0.32481E-05   -0.48220E-07   961   0.855E-04    0.558E-04
RMM:  60    -0.105756674101E+04   -0.21614E-05   -0.42162E-07   929   0.838E-04    0.234E-04
RMM:  61    -0.105756674223E+04   -0.12163E-05   -0.35081E-07   912   0.731E-04    0.263E-04
RMM:  62    -0.105756674274E+04   -0.50668E-06   -0.25300E-07   858   0.691E-04
   6 F= -.10653875E+04 E0= -.10653815E+04  d E =-.566442E+01  mag=     5.0029
 trial-energy change:   -5.664422  1 .order   -8.922672  -51.928375   34.083032
 step:   0.4519(harm=  0.4983)  dis= 0.13696  next Energy= -1073.402034 (dE=-0.137E+02)
 bond charge predicted
       N       E                     dE             d eps       ncg     rms          rms(c)
DAV:   1    -0.105807420829E+04   -0.50747E+00   -0.24616E+03  1908   0.122E+02    0.173E+01
RMM:   2    -0.106597390197E+04   -0.78997E+01   -0.72849E+01  2126   0.215E+01    0.230E+01
RMM:   3    -0.107419769214E+04   -0.82238E+01   -0.18813E+01  2413   0.912E+00    0.503E+01
RMM:   4    -0.106822389367E+04    0.59738E+01   -0.56771E+00  2265   0.520E+00    0.282E+01
RMM:   5    -0.106574742476E+04    0.24765E+01   -0.17450E+00  2383   0.261E+00    0.127E+01
RMM:   6    -0.106735487787E+04   -0.16075E+01   -0.13820E+00  2191   0.231E+00    0.293E+01
RMM:   7    -0.106582961193E+04    0.15253E+01   -0.91835E-01  2209   0.184E+00    0.107E+01
RMM:   8    -0.106601174826E+04   -0.18214E+00   -0.76577E-01  2111   0.182E+00    0.153E+01
RMM:   9    -0.106595455822E+04    0.57190E-01   -0.51860E-01  2084   0.142E+00    0.132E+01
RMM:  10    -0.106568686181E+04    0.26770E+00   -0.24566E-01  2090   0.103E+00    0.632E+00
RMM:  11    -0.106682365474E+04   -0.11368E+01   -0.68068E-01  2133   0.161E+00    0.248E+01
RMM:  12    -0.106566252572E+04    0.11611E+01   -0.44445E-01  2242   0.133E+00    0.736E+00
RMM:  13    -0.106571762095E+04   -0.55095E-01   -0.23538E-01  2132   0.103E+00    0.597E+00
RMM:  14    -0.106573308491E+04   -0.15464E-01   -0.16396E-01  2229   0.815E-01    0.533E+00
RMM:  15    -0.106569550511E+04    0.37580E-01   -0.48033E-02  2149   0.474E-01    0.349E+00
RMM:  16    -0.106568742327E+04    0.80818E-02   -0.35642E-02  2181   0.370E-01    0.269E+00
RMM:  17    -0.106568044204E+04    0.69812E-02   -0.27422E-02  2179   0.334E-01    0.206E+00
RMM:  18    -0.106567374623E+04    0.66958E-02   -0.17790E-02  2262   0.264E-01    0.125E+00
RMM:  19    -0.106566961703E+04    0.41292E-02   -0.10881E-02  2110   0.221E-01    0.948E-01
RMM:  20    -0.106566919497E+04    0.42206E-03   -0.56045E-03  2162   0.158E-01    0.772E-01
RMM:  21    -0.106566867853E+04    0.51644E-03   -0.29591E-03  2196   0.113E-01    0.453E-01
RMM:  22    -0.106567051532E+04   -0.18368E-02   -0.14719E-03  2166   0.749E-02    0.367E-01
RMM:  23    -0.106567222649E+04   -0.17112E-02   -0.12070E-03  2264   0.661E-02    0.349E-01
RMM:  24    -0.106567402233E+04   -0.17958E-02   -0.64345E-04  2241   0.470E-02    0.262E-01
RMM:  25    -0.106567517429E+04   -0.11520E-02   -0.34626E-04  2381   0.286E-02    0.215E-01
RMM:  26    -0.106567609305E+04   -0.91876E-03   -0.27500E-04  2225   0.292E-02    0.168E-01
RMM:  27    -0.106567689623E+04   -0.80318E-03   -0.17514E-04  2195   0.234E-02    0.128E-01
RMM:  28    -0.106567816107E+04   -0.12648E-02   -0.19607E-04  2283   0.197E-02    0.102E-01
RMM:  29    -0.106567895319E+04   -0.79212E-03   -0.11871E-04  2213   0.141E-02    0.797E-02
RMM:  30    -0.106567932636E+04   -0.37317E-03   -0.51137E-05  1914   0.111E-02    0.850E-02
RMM:  31    -0.106567970321E+04   -0.37685E-03   -0.28404E-05  1753   0.774E-03    0.466E-02
RMM:  32    -0.106568001257E+04   -0.30936E-03   -0.19662E-05  1641   0.661E-03    0.271E-02
RMM:  33    -0.106568024560E+04   -0.23303E-03   -0.12824E-05  1593   0.516E-03    0.226E-02
RMM:  34    -0.106568044793E+04   -0.20233E-03   -0.94749E-06  1512   0.443E-03    0.217E-02
RMM:  35    -0.106568063266E+04   -0.18473E-03   -0.75257E-06  1500   0.403E-03    0.195E-02
RMM:  36    -0.106568077921E+04   -0.14655E-03   -0.57107E-06  1463   0.320E-03    0.124E-02
RMM:  37    -0.106568092494E+04   -0.14573E-03   -0.64763E-06  1502   0.329E-03    0.118E-02
RMM:  38    -0.106568101592E+04   -0.90978E-04   -0.46546E-06  1420   0.290E-03    0.747E-03
RMM:  39    -0.106568107677E+04   -0.60844E-04   -0.27806E-06  1289   0.228E-03    0.859E-03
RMM:  40    -0.106568114259E+04   -0.65826E-04   -0.33873E-06  1325   0.229E-03    0.824E-03
RMM:  41    -0.106568118155E+04   -0.38959E-04   -0.25569E-06  1292   0.218E-03    0.349E-03
RMM:  42    -0.106568121061E+04   -0.29061E-04   -0.23179E-06  1233   0.183E-03    0.300E-03
RMM:  43    -0.106568122575E+04   -0.15134E-04   -0.16235E-06  1152   0.175E-03    0.194E-03
RMM:  44    -0.106568123378E+04   -0.80369E-05   -0.13106E-06  1098   0.147E-03    0.190E-03
RMM:  45    -0.106568123749E+04   -0.37053E-05   -0.85154E-07  1027   0.133E-03    0.109E-03
RMM:  46    -0.106568123936E+04   -0.18671E-05   -0.60390E-07   975   0.104E-03    0.108E-03
RMM:  47    -0.106568124034E+04   -0.98938E-06   -0.40792E-07   921   0.918E-04
   7 F= -.10733866E+04 E0= -.10733759E+04  d E =-.136635E+02  mag=     5.0002
 curvature:  -0.27 expect dE=-0.112E+02 dE for cont linesearch -0.214E-05
 trial: gam= 0.68902 g(F)=  0.410E+02 g(S)=  0.000E+00 ort =-0.235E-01 (trialstep = 0.713E+00)
 search vector abs. value=  0.745E+02
 bond charge predicted
       N       E                     dE             d eps       ncg     rms          rms(c)
DAV:   1    -0.996433428360E+03    0.69248E+02   -0.94774E+03  1974   0.238E+02    0.694E+01
RMM:   2    -0.105827692393E+04   -0.61843E+02   -0.60647E+02  2286   0.601E+01    0.654E+01
RMM:   3    -0.116773025961E+04   -0.10945E+03   -0.19480E+02  2095   0.349E+01    0.139E+02
RMM:   4    -0.109101344778E+04    0.76717E+02   -0.47664E+01  2180   0.172E+01    0.847E+01
RMM:   5    -0.108589523933E+04    0.51182E+01   -0.31765E+01  2008   0.133E+01    0.947E+01
RMM:   6    -0.108551353694E+04    0.38170E+00   -0.26018E+01  2167   0.102E+01    0.921E+01
RMM:   7    -0.105976601898E+04    0.25748E+02   -0.20018E+01  2013   0.103E+01    0.626E+01
RMM:   8    -0.105319166044E+04    0.65744E+01   -0.11116E+01  2168   0.691E+00    0.455E+01
RMM:   9    -0.105408611355E+04   -0.89445E+00   -0.80244E+00  2163   0.553E+00    0.514E+01
RMM:  10    -0.105321115043E+04    0.87496E+00   -0.53554E+00  2065   0.499E+00    0.412E+01
RMM:  11    -0.105338548423E+04   -0.17433E+00   -0.29162E+00  2120   0.333E+00    0.437E+01
RMM:  12    -0.105234372369E+04    0.10418E+01   -0.31366E+00  2049   0.372E+00    0.425E+01
RMM:  13    -0.104990287153E+04    0.24409E+01   -0.26582E+00  2098   0.314E+00    0.332E+01
RMM:  14    -0.104973801787E+04    0.16485E+00   -0.14848E+00  2162   0.237E+00    0.334E+01
RMM:  15    -0.105073461843E+04   -0.99660E+00   -0.24824E+00  2117   0.317E+00    0.334E+01
RMM:  16    -0.105069246514E+04    0.42153E-01   -0.28311E+00  2017   0.352E+00    0.292E+01
RMM:  17    -0.104926521048E+04    0.14273E+01   -0.19827E+00  2057   0.301E+00    0.247E+01
RMM:  18    -0.104837203638E+04    0.89317E+00   -0.95346E-01  2185   0.201E+00    0.150E+01
RMM:  19    -0.104864197043E+04   -0.26993E+00   -0.84788E-01  2111   0.194E+00    0.173E+01
RMM:  20    -0.104876209336E+04   -0.12012E+00   -0.80692E-01  2161   0.176E+00    0.168E+01
RMM:  21    -0.104871421222E+04    0.47881E-01   -0.53782E-01  2071   0.154E+00    0.196E+01
RMM:  22    -0.104873532617E+04   -0.21114E-01   -0.22342E-01  2080   0.105E+00    0.184E+01
RMM:  23    -0.104873043443E+04    0.48917E-02   -0.98731E-02  2171   0.640E-01    0.165E+01
RMM:  24    -0.104869712419E+04    0.33310E-01   -0.93337E-02  2164   0.582E-01    0.145E+01
RMM:  25    -0.104867733345E+04    0.19791E-01   -0.61676E-02  2165   0.494E-01    0.136E+01
RMM:  26    -0.104870093878E+04   -0.23605E-01   -0.47982E-02  2222   0.422E-01    0.131E+01
RMM:  27    -0.104859139742E+04    0.10954E+00   -0.13284E-01  2141   0.719E-01    0.100E+01
RMM:  28    -0.104850677324E+04    0.84624E-01   -0.11961E-01  2129   0.676E-01    0.579E+00
RMM:  29    -0.104853859458E+04   -0.31821E-01   -0.39071E-02  2134   0.399E-01    0.523E+00
RMM:  30    -0.104856871537E+04   -0.30121E-01   -0.13521E-02  2234   0.232E-01    0.518E+00
RMM:  31    -0.104860920752E+04   -0.40492E-01   -0.10672E-02  2273   0.175E-01    0.503E+00
RMM:  32    -0.104868335379E+04   -0.74146E-01   -0.15502E-02  2176   0.222E-01    0.490E+00
RMM:  33    -0.104876514307E+04   -0.81789E-01   -0.41957E-02  2172   0.374E-01    0.477E+00
RMM:  34    -0.104878435867E+04   -0.19216E-01   -0.38857E-02  2207   0.370E-01    0.387E+00
RMM:  35    -0.104880972636E+04   -0.25368E-01   -0.29423E-02  2289   0.304E-01    0.341E+00
RMM:  36    -0.104880929285E+04    0.43351E-03   -0.15746E-02  2263   0.218E-01    0.289E+00
RMM:  37    -0.104880089229E+04    0.84006E-02   -0.14919E-02  2181   0.230E-01    0.248E+00
RMM:  38    -0.104878410520E+04    0.16787E-01   -0.12846E-02  2310   0.207E-01    0.180E+00
RMM:  39    -0.104878289590E+04    0.12093E-02   -0.72175E-03  2338   0.143E-01    0.147E+00
RMM:  40    -0.104878414994E+04   -0.12540E-02   -0.58023E-03  2361   0.131E-01    0.128E+00
RMM:  41    -0.104878398818E+04    0.16176E-03   -0.44255E-03  2245   0.123E-01    0.100E+00
RMM:  42    -0.104878781397E+04   -0.38258E-02   -0.31533E-03  2345   0.954E-02    0.682E-01
RMM:  43    -0.104879292582E+04   -0.51119E-02   -0.16756E-03  2388   0.663E-02    0.561E-01
RMM:  44    -0.104879723167E+04   -0.43059E-02   -0.13538E-03  2350   0.562E-02    0.450E-01
RMM:  45    -0.104880302418E+04   -0.57925E-02   -0.12559E-03  2361   0.546E-02    0.271E-01
RMM:  46    -0.104880754379E+04   -0.45196E-02   -0.68806E-04  2385   0.414E-02    0.206E-01
RMM:  47    -0.104880974831E+04   -0.22045E-02   -0.50670E-04  2377   0.334E-02    0.191E-01
RMM:  48    -0.104881224096E+04   -0.24927E-02   -0.21701E-04  2328   0.230E-02    0.189E-01
RMM:  49    -0.104881520887E+04   -0.29679E-02   -0.21900E-04  2299   0.195E-02    0.162E-01
RMM:  50    -0.104881804694E+04   -0.28381E-02   -0.19275E-04  2303   0.170E-02    0.941E-02
RMM:  51    -0.104882032915E+04   -0.22822E-02   -0.15398E-04  2177   0.129E-02    0.548E-02
RMM:  52    -0.104882189431E+04   -0.15652E-02   -0.91340E-05  2099   0.123E-02    0.581E-02
RMM:  53    -0.104882252877E+04   -0.63447E-03   -0.30592E-05  1709   0.726E-03    0.350E-02
RMM:  54    -0.104882332812E+04   -0.79935E-03   -0.29189E-05  1751   0.606E-03    0.361E-02
RMM:  55    -0.104882411897E+04   -0.79085E-03   -0.31415E-05  1802   0.547E-03    0.335E-02
RMM:  56    -0.104882455984E+04   -0.44086E-03   -0.16987E-05  1619   0.420E-03    0.245E-02
RMM:  57    -0.104882491102E+04   -0.35118E-03   -0.14137E-05  1548   0.343E-03    0.151E-02
RMM:  58    -0.104882526037E+04   -0.34935E-03   -0.15780E-05  1594   0.373E-03    0.930E-03
RMM:  59    -0.104882549615E+04   -0.23579E-03   -0.12265E-05  1529   0.325E-03    0.758E-03
RMM:  60    -0.104882571753E+04   -0.22138E-03   -0.13936E-05  1566   0.330E-03    0.415E-03
RMM:  61    -0.104882588696E+04   -0.16943E-03   -0.15368E-05  1560   0.317E-03    0.370E-03
RMM:  62    -0.104882591162E+04   -0.24663E-04   -0.27137E-06  1242   0.240E-03    0.439E-03
RMM:  63    -0.104882596170E+04   -0.50079E-04   -0.55658E-06  1306   0.195E-03    0.307E-03
RMM:  64    -0.104882598134E+04   -0.19639E-04   -0.23041E-06  1198   0.184E-03    0.236E-03
RMM:  65    -0.104882598878E+04   -0.74395E-05   -0.13380E-06  1079   0.132E-03    0.193E-03
RMM:  66    -0.104882599264E+04   -0.38652E-05   -0.71070E-07  1037   0.123E-03    0.130E-03
RMM:  67    -0.104882599533E+04   -0.26882E-05   -0.56630E-07   977   0.942E-04    0.740E-04
RMM:  68    -0.104882599660E+04   -0.12721E-05   -0.37710E-07   935   0.875E-04    0.578E-04
RMM:  69    -0.104882599759E+04   -0.98677E-06   -0.29033E-07   853   0.693E-04
   8 F= -.10566983E+04 E0= -.10566903E+04  d E =0.166883E+02  mag=     5.0032
 trial-energy change:   16.688287  1 .order   27.714622  -29.187969   84.617214
 step:   0.2819(harm=  0.1828)  dis= 0.07997  next Energy= -1079.839634 (dE=-0.645E+01)
 bond charge predicted
       N       E                     dE             d eps       ncg     rms          rms(c)
DAV:   1    -0.105998067363E+04   -0.11155E+02   -0.34698E+03  1920   0.139E+02    0.337E+01
RMM:   2    -0.107028986266E+04   -0.10309E+02   -0.11389E+02  2116   0.267E+01    0.274E+01
RMM:   3    -0.108490784263E+04   -0.14618E+02   -0.29377E+01  2364   0.115E+01    0.637E+01
RMM:   4    -0.107804500169E+04    0.68628E+01   -0.15658E+01  2183   0.861E+00    0.451E+01
RMM:   5    -0.107355181206E+04    0.44932E+01   -0.53274E+00  2260   0.468E+00    0.341E+01
RMM:   6    -0.108250572768E+04   -0.89539E+01   -0.92660E+00  2047   0.638E+00    0.579E+01
RMM:   7    -0.107536151648E+04    0.71442E+01   -0.72076E+00  2075   0.599E+00    0.421E+01
RMM:   8    -0.107386990203E+04    0.14916E+01   -0.61261E+00  2083   0.538E+00    0.411E+01
RMM:   9    -0.107632357101E+04   -0.24537E+01   -0.34177E+00  2135   0.378E+00    0.509E+01
RMM:  10    -0.107380159131E+04    0.25220E+01   -0.37433E+00  2047   0.412E+00    0.400E+01
RMM:  11    -0.107204487168E+04    0.17567E+01   -0.23711E+00  2100   0.299E+00    0.280E+01
RMM:  12    -0.107003891003E+04    0.20060E+01   -0.11574E+00  2038   0.232E+00    0.212E+01
RMM:  13    -0.106988945759E+04    0.14945E+00   -0.99902E-01  2060   0.202E+00    0.187E+01
RMM:  14    -0.106968602413E+04    0.20343E+00   -0.41263E-01  2024   0.144E+00    0.139E+01
RMM:  15    -0.106999755609E+04   -0.31153E+00   -0.17599E-01  2151   0.875E-01    0.149E+01
RMM:  16    -0.107006251134E+04   -0.64955E-01   -0.72225E-02  2112   0.508E-01    0.137E+01
RMM:  17    -0.107025364777E+04   -0.19114E+00   -0.11882E-01  2051   0.630E-01    0.130E+01
RMM:  18    -0.107067308600E+04   -0.41944E+00   -0.37402E-01  2068   0.110E+00    0.941E+00
RMM:  19    -0.107099038230E+04   -0.31730E+00   -0.40825E-01  2124   0.122E+00    0.120E+01
RMM:  20    -0.107096499558E+04    0.25387E-01   -0.26329E-01  2096   0.107E+00    0.777E+00
RMM:  21    -0.107091469775E+04    0.50298E-01   -0.16271E-01  2078   0.844E-01    0.658E+00
RMM:  22    -0.107088541010E+04    0.29288E-01   -0.77786E-02  2292   0.526E-01    0.569E+00
RMM:  23    -0.107095771783E+04   -0.72308E-01   -0.37723E-02  2195   0.371E-01    0.626E+00
RMM:  24    -0.107096398660E+04   -0.62688E-02   -0.29796E-02  2122   0.336E-01    0.545E+00
RMM:  25    -0.107095623284E+04    0.77538E-02   -0.47648E-02  2165   0.429E-01    0.438E+00
RMM:  26    -0.107097630135E+04   -0.20069E-01   -0.45866E-02  2226   0.424E-01    0.374E+00
RMM:  27    -0.107098527470E+04   -0.89733E-02   -0.29309E-02  2250   0.353E-01    0.301E+00
RMM:  28    -0.107099205087E+04   -0.67762E-02   -0.18841E-02  2303   0.265E-01    0.276E+00
RMM:  29    -0.107099219562E+04   -0.14475E-03   -0.58847E-03  2290   0.140E-01    0.247E+00
RMM:  30    -0.107100642073E+04   -0.14225E-01   -0.11803E-02  2290   0.190E-01    0.232E+00
RMM:  31    -0.107101222267E+04   -0.58019E-02   -0.70986E-03  2094   0.178E-01    0.205E+00
RMM:  32    -0.107101036800E+04    0.18547E-02   -0.46154E-03  2242   0.129E-01    0.175E+00
RMM:  33    -0.107101076213E+04   -0.39413E-03   -0.24999E-03  2390   0.812E-02    0.149E+00
RMM:  34    -0.107101467782E+04   -0.39157E-02   -0.36734E-03  2242   0.107E-01    0.115E+00
RMM:  35    -0.107101821299E+04   -0.35352E-02   -0.40109E-03  2231   0.115E-01    0.104E+00
RMM:  36    -0.107101940777E+04   -0.11948E-02   -0.28145E-03  2403   0.768E-02    0.746E-01
RMM:  37    -0.107101812122E+04    0.12865E-02   -0.19439E-03  2286   0.685E-02    0.586E-01
RMM:  38    -0.107101634048E+04    0.17807E-02   -0.12916E-03  2238   0.661E-02    0.573E-01
RMM:  39    -0.107101688907E+04   -0.54859E-03   -0.10043E-03  2296   0.549E-02    0.371E-01
RMM:  40    -0.107101798292E+04   -0.10938E-02   -0.68838E-04  2325   0.459E-02    0.427E-01
RMM:  41    -0.107101839714E+04   -0.41422E-03   -0.28255E-04  2171   0.327E-02    0.303E-01
RMM:  42    -0.107101949074E+04   -0.10936E-02   -0.25730E-04  2188   0.291E-02    0.257E-01
RMM:  43    -0.107102063807E+04   -0.11473E-02   -0.18137E-04  2266   0.190E-02    0.206E-01
RMM:  44    -0.107102155465E+04   -0.91659E-03   -0.84901E-05  2152   0.124E-02    0.185E-01
RMM:  45    -0.107102251246E+04   -0.95780E-03   -0.74017E-05  2149   0.126E-02    0.165E-01
RMM:  46    -0.107102313098E+04   -0.61853E-03   -0.53222E-05  1942   0.120E-02    0.150E-01
RMM:  47    -0.107102408971E+04   -0.95873E-03   -0.11072E-04  2196   0.133E-02    0.109E-01
RMM:  48    -0.107102477520E+04   -0.68549E-03   -0.53400E-05  2024   0.958E-03    0.986E-02
RMM:  49    -0.107102528650E+04   -0.51130E-03   -0.47499E-05  2048   0.829E-03    0.659E-02
RMM:  50    -0.107102557305E+04   -0.28656E-03   -0.21733E-05  1878   0.712E-03    0.477E-02
RMM:  51    -0.107102579420E+04   -0.22115E-03   -0.16630E-05  1824   0.504E-03    0.329E-02
RMM:  52    -0.107102600151E+04   -0.20731E-03   -0.15569E-05  1856   0.650E-03    0.252E-02
RMM:  53    -0.107102604405E+04   -0.42542E-04   -0.44713E-06  1405   0.365E-03    0.183E-02
RMM:  54    -0.107102610649E+04   -0.62436E-04   -0.30873E-06  1307   0.303E-03    0.119E-02
RMM:  55    -0.107102618456E+04   -0.78071E-04   -0.50194E-06  1471   0.270E-03    0.914E-03
RMM:  56    -0.107102622433E+04   -0.39764E-04   -0.28145E-06  1310   0.237E-03    0.650E-03
RMM:  57    -0.107102625627E+04   -0.31944E-04   -0.34498E-06  1327   0.230E-03    0.738E-03
RMM:  58    -0.107102625894E+04   -0.26710E-05   -0.10325E-06  1159   0.186E-03    0.359E-03
RMM:  59    -0.107102626339E+04   -0.44536E-05   -0.60754E-07  1110   0.116E-03    0.158E-03
RMM:  60    -0.107102626828E+04   -0.48861E-05   -0.43026E-07  1041   0.105E-03    0.145E-03
RMM:  61    -0.107102627251E+04   -0.42305E-05   -0.37046E-07   966   0.813E-04    0.115E-03
RMM:  62    -0.107102627536E+04   -0.28511E-05   -0.29510E-07   925   0.799E-04    0.680E-04
RMM:  63    -0.107102627845E+04   -0.30831E-05   -0.31774E-07   920   0.706E-04    0.643E-04
RMM:  64    -0.107102628024E+04   -0.17931E-05   -0.27593E-07   927   0.738E-04    0.462E-04
RMM:  65    -0.107102628133E+04   -0.10915E-05   -0.24968E-07   836   0.612E-04    0.347E-04
RMM:  66    -0.107102628181E+04   -0.47807E-06   -0.18432E-07   817   0.618E-04
   9 F= -.10788232E+04 E0= -.10788139E+04  d E =-.543669E+01  mag=     5.0006
 curvature:  -0.16 expect dE=-0.519E+01 dE for cont linesearch -0.176E-01
 trial: gam= 0.86436 g(F)=  0.324E+02 g(S)=  0.000E+00 ort =-0.286E+01 (trialstep = 0.562E+00)
 search vector abs. value=  0.831E+02
 bond charge predicted
       N       E                     dE             d eps       ncg     rms          rms(c)
DAV:   1    -0.102482659175E+04    0.46200E+02   -0.73843E+03  1932   0.206E+02    0.522E+01
RMM:   2    -0.106576438596E+04   -0.40938E+02   -0.42489E+02  2228   0.507E+01    0.463E+01
RMM:   3    -0.111741614651E+04   -0.51652E+02   -0.10916E+02  2134   0.256E+01    0.107E+02
RMM:   4    -0.108698682959E+04    0.30429E+02   -0.39367E+01  2204   0.149E+01    0.723E+01
RMM:   5    -0.106852532833E+04    0.18462E+02   -0.13132E+01  2203   0.824E+00    0.388E+01
RMM:   6    -0.107188298929E+04   -0.33577E+01   -0.97771E+00  2242   0.591E+00    0.599E+01
RMM:   7    -0.106487479154E+04    0.70082E+01   -0.51646E+00  2117   0.497E+00    0.312E+01
RMM:   8    -0.106518475601E+04   -0.30996E+00   -0.29401E+00  2228   0.339E+00    0.334E+01
RMM:   9    -0.106451920344E+04    0.66555E+00   -0.11186E+00  2284   0.213E+00    0.262E+01
RMM:  10    -0.106446373454E+04    0.55469E-01   -0.13754E+00  2202   0.238E+00    0.280E+01
RMM:  11    -0.106517221700E+04   -0.70848E+00   -0.17289E+00  2270   0.240E+00    0.283E+01
RMM:  12    -0.106356126675E+04    0.16110E+01   -0.11202E+00  2166   0.225E+00    0.173E+01
RMM:  13    -0.106383001640E+04   -0.26875E+00   -0.10041E+00  2107   0.202E+00    0.153E+01
RMM:  14    -0.106372237817E+04    0.10764E+00   -0.77530E-01  2151   0.176E+00    0.174E+01
RMM:  15    -0.106400843359E+04   -0.28606E+00   -0.88989E-01  2114   0.190E+00    0.165E+01
RMM:  16    -0.106385941543E+04    0.14902E+00   -0.91395E-01  2139   0.202E+00    0.156E+01
RMM:  17    -0.106363744798E+04    0.22197E+00   -0.50295E-01  2229   0.149E+00    0.123E+01
RMM:  18    -0.106344665441E+04    0.19079E+00   -0.34916E-01  2130   0.126E+00    0.682E+00
RMM:  19    -0.106352011528E+04   -0.73461E-01   -0.14809E-01  2052   0.879E-01    0.535E+00
RMM:  20    -0.106355815415E+04   -0.38039E-01   -0.85613E-02  2108   0.618E-01    0.510E+00
RMM:  21    -0.106353387738E+04    0.24277E-01   -0.49881E-02  2129   0.462E-01    0.409E+00
RMM:  22    -0.106351949594E+04    0.14381E-01   -0.55964E-02  2140   0.491E-01    0.319E+00
RMM:  23    -0.106351993492E+04   -0.43899E-03   -0.40351E-02  2255   0.413E-01    0.381E+00
RMM:  24    -0.106353561454E+04   -0.15680E-01   -0.18058E-02  2248   0.273E-01    0.519E+00
RMM:  25    -0.106351687597E+04    0.18739E-01   -0.74279E-03  2203   0.173E-01    0.456E+00
RMM:  26    -0.106349114958E+04    0.25726E-01   -0.16746E-02  2210   0.238E-01    0.199E+00
RMM:  27    -0.106347437971E+04    0.16770E-01   -0.18884E-02  2136   0.276E-01    0.184E+00
RMM:  28    -0.106346555080E+04    0.88289E-02   -0.95537E-03  2287   0.192E-01    0.105E+00
RMM:  29    -0.106346398718E+04    0.15636E-02   -0.40524E-03  2319   0.119E-01    0.810E-01
RMM:  30    -0.106346788207E+04   -0.38949E-02   -0.35476E-03  2235   0.113E-01    0.826E-01
RMM:  31    -0.106346867085E+04   -0.78878E-03   -0.26197E-03  2260   0.969E-02    0.708E-01
RMM:  32    -0.106347383376E+04   -0.51629E-02   -0.14550E-03  2401   0.567E-02    0.489E-01
RMM:  33    -0.106347923616E+04   -0.54024E-02   -0.11161E-03  2291   0.597E-02    0.435E-01
RMM:  34    -0.106348796193E+04   -0.87258E-02   -0.89997E-04  2264   0.509E-02    0.349E-01
RMM:  35    -0.106349899620E+04   -0.11034E-01   -0.10507E-03  2300   0.422E-02    0.251E-01
RMM:  36    -0.106350458499E+04   -0.55888E-02   -0.64442E-04  2250   0.387E-02    0.209E-01
RMM:  37    -0.106350817305E+04   -0.35881E-02   -0.33177E-04  2278   0.268E-02    0.161E-01
RMM:  38    -0.106351309006E+04   -0.49170E-02   -0.30980E-04  2272   0.198E-02    0.115E-01
RMM:  39    -0.106351709964E+04   -0.40096E-02   -0.29626E-04  2252   0.217E-02    0.131E-01
RMM:  40    -0.106351955419E+04   -0.24546E-02   -0.18486E-04  2146   0.172E-02    0.862E-02
RMM:  41    -0.106352281157E+04   -0.32574E-02   -0.24268E-04  2118   0.140E-02    0.613E-02
RMM:  42    -0.106352541499E+04   -0.26034E-02   -0.25950E-04  2225   0.143E-02    0.380E-02
RMM:  43    -0.106352691652E+04   -0.15015E-02   -0.15671E-04  2068   0.100E-02    0.296E-02
RMM:  44    -0.106352795062E+04   -0.10341E-02   -0.99843E-05  1962   0.810E-03    0.257E-02
RMM:  45    -0.106352858970E+04   -0.63908E-03   -0.52130E-05  1832   0.624E-03    0.156E-02
RMM:  46    -0.106352897589E+04   -0.38619E-03   -0.29098E-05  1729   0.500E-03    0.123E-02
RMM:  47    -0.106352910789E+04   -0.13200E-03   -0.99337E-06  1531   0.408E-03    0.353E-02
RMM:  48    -0.106352920233E+04   -0.94437E-04   -0.51564E-06  1374   0.325E-03    0.208E-02
RMM:  49    -0.106352928414E+04   -0.81810E-04   -0.39820E-06  1349   0.245E-03    0.821E-03
RMM:  50    -0.106352933409E+04   -0.49948E-04   -0.24270E-06  1259   0.226E-03    0.977E-03
RMM:  51    -0.106352937754E+04   -0.43456E-04   -0.23353E-06  1237   0.177E-03    0.373E-03
RMM:  52    -0.106352939900E+04   -0.21454E-04   -0.12952E-06  1150   0.167E-03    0.347E-03
RMM:  53    -0.106352942207E+04   -0.23071E-04   -0.14839E-06  1118   0.137E-03    0.305E-03
RMM:  54    -0.106352943895E+04   -0.16883E-04   -0.12639E-06  1117   0.140E-03    0.216E-03
RMM:  55    -0.106352944960E+04   -0.10652E-04   -0.10868E-06  1066   0.119E-03    0.173E-03
RMM:  56    -0.106352945670E+04   -0.70956E-05   -0.10531E-06  1057   0.119E-03    0.160E-03
RMM:  57    -0.106352945963E+04   -0.29365E-05   -0.68729E-07   978   0.102E-03    0.736E-04
RMM:  58    -0.106352946119E+04   -0.15604E-05   -0.50979E-07   922   0.932E-04    0.485E-04
RMM:  59    -0.106352946209E+04   -0.90023E-06   -0.39079E-07   891   0.795E-04
  10 F= -.10714414E+04 E0= -.10714269E+04  d E =0.738182E+01  mag=     4.5992
 trial-energy change:    7.381816  1 .order   11.835909  -16.795473   40.467291
 step:   0.2281(harm=  0.1648)  dis= 0.09347  next Energy= -1082.529142 (dE=-0.371E+01)
 bond charge predicted
       N       E                     dE             d eps       ncg     rms          rms(c)
DAV:   1    -0.106620750641E+04   -0.26780E+01   -0.26392E+03  1896   0.120E+02    0.213E+01
RMM:   2    -0.107424002626E+04   -0.80325E+01   -0.78572E+01  2055   0.221E+01    0.231E+01
RMM:   3    -0.108432570963E+04   -0.10086E+02   -0.23329E+01  2313   0.108E+01    0.498E+01
RMM:   4    -0.107762552706E+04    0.67002E+01   -0.69266E+00  2315   0.579E+00    0.357E+01
RMM:   5    -0.107466687776E+04    0.29586E+01   -0.26910E+00  2259   0.324E+00    0.170E+01
RMM:   6    -0.107557782182E+04   -0.91094E+00   -0.21358E+00  2199   0.275E+00    0.301E+01
RMM:   7    -0.107539530556E+04    0.18252E+00   -0.12975E+00  2141   0.240E+00    0.276E+01
RMM:   8    -0.107410629174E+04    0.12890E+01   -0.74087E-01  2145   0.177E+00    0.103E+01
RMM:   9    -0.107483708256E+04   -0.73079E+00   -0.95459E-01  2100   0.199E+00    0.178E+01
RMM:  10    -0.107440515846E+04    0.43192E+00   -0.71110E-01  2135   0.171E+00    0.117E+01
RMM:  11    -0.107463814333E+04   -0.23298E+00   -0.58249E-01  2094   0.154E+00    0.155E+01
RMM:  12    -0.107433162236E+04    0.30652E+00   -0.57294E-01  2096   0.157E+00    0.838E+00
RMM:  13    -0.107435284394E+04   -0.21222E-01   -0.48262E-01  2094   0.149E+00    0.985E+00
RMM:  14    -0.107422050427E+04    0.13234E+00   -0.22814E-01  2106   0.101E+00    0.552E+00
RMM:  15    -0.107422967632E+04   -0.91720E-02   -0.13053E-01  2067   0.794E-01    0.416E+00
RMM:  16    -0.107425855939E+04   -0.28883E-01   -0.72101E-02  2075   0.565E-01    0.649E+00
RMM:  17    -0.107423971257E+04    0.18847E-01   -0.19455E-02  2085   0.307E-01    0.631E+00
RMM:  18    -0.107422362732E+04    0.16085E-01   -0.45697E-03  2421   0.108E-01    0.582E+00
RMM:  19    -0.107419264923E+04    0.30978E-01   -0.14050E-02  2143   0.231E-01    0.253E+00
RMM:  20    -0.107421132265E+04   -0.18673E-01   -0.23047E-02  2072   0.322E-01    0.180E+00
RMM:  21    -0.107422864687E+04   -0.17324E-01   -0.72286E-03  2217   0.187E-01    0.220E+00
RMM:  22    -0.107423246401E+04   -0.38171E-02   -0.48214E-03  2171   0.134E-01    0.187E+00
RMM:  23    -0.107423482599E+04   -0.23620E-02   -0.53645E-03  2116   0.141E-01    0.152E+00
RMM:  24    -0.107423624809E+04   -0.14221E-02   -0.57957E-03  2100   0.153E-01    0.132E+00
RMM:  25    -0.107424137671E+04   -0.51286E-02   -0.33034E-03  2239   0.117E-01    0.189E+00
RMM:  26    -0.107424202900E+04   -0.65229E-03   -0.18576E-03  2102   0.900E-02    0.195E+00
RMM:  27    -0.107424255940E+04   -0.53040E-03   -0.15564E-03  2189   0.738E-02    0.158E+00
RMM:  28    -0.107424376621E+04   -0.12068E-02   -0.13653E-03  2254   0.680E-02    0.102E+00
RMM:  29    -0.107424539454E+04   -0.16283E-02   -0.15545E-03  2162   0.775E-02    0.515E-01
RMM:  30    -0.107424704332E+04   -0.16488E-02   -0.83189E-04  2223   0.579E-02    0.338E-01
RMM:  31    -0.107424798170E+04   -0.93838E-03   -0.48308E-04  2150   0.437E-02    0.302E-01
RMM:  32    -0.107424855316E+04   -0.57145E-03   -0.26604E-04  2287   0.285E-02    0.236E-01
RMM:  33    -0.107424938284E+04   -0.82968E-03   -0.12745E-04  2241   0.177E-02    0.204E-01
RMM:  34    -0.107425017344E+04   -0.79060E-03   -0.83262E-05  2137   0.150E-02    0.187E-01
RMM:  35    -0.107425101905E+04   -0.84561E-03   -0.91321E-05  2146   0.156E-02    0.128E-01
RMM:  36    -0.107425161933E+04   -0.60027E-03   -0.77430E-05  2096   0.139E-02    0.690E-02
RMM:  37    -0.107425209418E+04   -0.47485E-03   -0.44196E-05  1980   0.100E-02    0.573E-02
RMM:  38    -0.107425239646E+04   -0.30228E-03   -0.20844E-05  1784   0.645E-03    0.646E-02
RMM:  39    -0.107425258234E+04   -0.18589E-03   -0.14791E-05  1672   0.584E-03    0.553E-02
RMM:  40    -0.107425276971E+04   -0.18736E-03   -0.13477E-05  1631   0.536E-03    0.285E-02
RMM:  41    -0.107425292041E+04   -0.15071E-03   -0.10051E-05  1574   0.455E-03    0.156E-02
RMM:  42    -0.107425303642E+04   -0.11601E-03   -0.78061E-06  1516   0.414E-03    0.167E-02
RMM:  43    -0.107425315412E+04   -0.11770E-03   -0.77421E-06  1556   0.358E-03    0.116E-02
RMM:  44    -0.107425324385E+04   -0.89733E-04   -0.54917E-06  1463   0.278E-03    0.131E-02
RMM:  45    -0.107425329165E+04   -0.47798E-04   -0.27686E-06  1289   0.232E-03    0.885E-03
RMM:  46    -0.107425334027E+04   -0.48616E-04   -0.30533E-06  1283   0.206E-03    0.318E-03
[...]
DAV:   1    -0.110184852546E+04   -0.29613E-02   -0.22175E+00  1896   0.327E+00    0.370E-01
RMM:   2    -0.110185356782E+04   -0.50424E-02   -0.47897E-02  2178   0.465E-01    0.809E-01
RMM:   3    -0.110185600119E+04   -0.24334E-02   -0.64247E-03  2153   0.202E-01    0.166E+00
RMM:   4    -0.110185759897E+04   -0.15978E-02   -0.43359E-03  2329   0.142E-01    0.282E+00
RMM:   5    -0.110184941206E+04    0.81869E-02   -0.39698E-03  2046   0.137E-01    0.796E-01
RMM:   6    -0.110185250448E+04   -0.30924E-02   -0.14898E-03  1994   0.900E-02    0.353E-01
RMM:   7    -0.110185393497E+04   -0.14305E-02   -0.73910E-04  2090   0.598E-02    0.662E-01
RMM:   8    -0.110185383395E+04    0.10102E-03   -0.60158E-04  2073   0.584E-02    0.872E-01
RMM:   9    -0.110185320554E+04    0.62840E-03   -0.37947E-04  2105   0.435E-02    0.422E-01
RMM:  10    -0.110185342921E+04   -0.22366E-03   -0.21703E-04  1953   0.336E-02    0.240E-01
RMM:  11    -0.110185375382E+04   -0.32461E-03   -0.20616E-04  1970   0.347E-02    0.475E-01
RMM:  12    -0.110185356480E+04    0.18902E-03   -0.11214E-04  1884   0.265E-02    0.452E-01
RMM:  13    -0.110185346855E+04    0.96249E-04   -0.50551E-05  1747   0.160E-02    0.330E-01
RMM:  14    -0.110185347741E+04   -0.88559E-05   -0.28472E-05  1583   0.115E-02    0.122E-01
RMM:  15    -0.110185356952E+04   -0.92114E-04   -0.26282E-05  1634   0.133E-02    0.691E-02
RMM:  16    -0.110185361026E+04   -0.40743E-04   -0.18430E-05  1606   0.109E-02    0.881E-02
RMM:  17    -0.110185360311E+04    0.71522E-05   -0.49711E-06  1356   0.571E-03    0.622E-02
RMM:  18    -0.110185360585E+04   -0.27370E-05   -0.13741E-06  1176   0.332E-03    0.202E-02
RMM:  19    -0.110185361361E+04   -0.77596E-05   -0.10555E-06  1144   0.256E-03    0.112E-02
RMM:  20    -0.110185361735E+04   -0.37424E-05   -0.72125E-07  1083   0.214E-03    0.194E-02
RMM:  21    -0.110185361930E+04   -0.19463E-05   -0.36226E-07  1053   0.151E-03    0.101E-02
RMM:  22    -0.110185362152E+04   -0.22271E-05   -0.19445E-07   991   0.107E-03    0.314E-03
RMM:  23    -0.110185362325E+04   -0.17249E-05   -0.14114E-07   942   0.828E-04    0.964E-03
RMM:  24    -0.110185362428E+04   -0.10352E-05   -0.97995E-08   925   0.666E-04    0.868E-03
RMM:  25    -0.110185362550E+04   -0.12128E-05   -0.69389E-08   815   0.536E-04    0.368E-03
RMM:  26    -0.110185362701E+04   -0.15167E-05   -0.66250E-08   755   0.479E-04    0.139E-03
RMM:  27    -0.110185362790E+04   -0.88089E-06   -0.59981E-08   781   0.493E-04
 320 F= -.11098164E+04 E0= -.11097966E+04  d E =-.826390E-02  mag=     4.4246
 trial-energy change:   -0.008264  1 .order   -0.008227   -0.009826   -0.006629
 step:   0.1548(harm=  0.1733)  dis= 0.01370  next Energy= -1109.822393 (dE=-0.142E-01)
 bond charge predicted
       N       E                     dE             d eps       ncg     rms          rms(c)
DAV:   1    -0.110184444915E+04    0.91779E-02   -0.67559E+00  1896   0.570E+00    0.645E-01
RMM:   2    -0.110185992735E+04   -0.15478E-01   -0.14615E-01  2177   0.812E-01    0.138E+00
RMM:   3    -0.110186636918E+04   -0.64418E-02   -0.19763E-02  2148   0.352E-01    0.248E+00
RMM:   4    -0.110186000773E+04    0.63615E-02   -0.10505E-02  2350   0.229E-01    0.136E+00
RMM:   5    -0.110186082957E+04   -0.82184E-03   -0.29557E-03  2174   0.114E-01    0.177E+00
RMM:   6    -0.110185866749E+04    0.21621E-02   -0.32863E-03  2047   0.127E-01    0.520E-01
RMM:   7    -0.110186074460E+04   -0.20771E-02   -0.18738E-03  2071   0.924E-02    0.731E-01
RMM:   8    -0.110185983012E+04    0.91449E-03   -0.11584E-03  2167   0.745E-02    0.508E-01
RMM:   9    -0.110186081214E+04   -0.98202E-03   -0.11851E-03  2111   0.733E-02    0.832E-01
RMM:  10    -0.110185972439E+04    0.10877E-02   -0.81076E-04  2124   0.615E-02    0.273E-01
RMM:  11    -0.110186001622E+04   -0.29183E-03   -0.47226E-04  1996   0.522E-02    0.367E-01
RMM:  12    -0.110185996987E+04    0.46342E-04   -0.21550E-04  1974   0.333E-02    0.373E-01
RMM:  13    -0.110185981677E+04    0.15310E-03   -0.87782E-05  1830   0.221E-02    0.186E-01
RMM:  14    -0.110185986528E+04   -0.48510E-04   -0.35579E-05  1648   0.138E-02    0.437E-02
RMM:  15    -0.110185993461E+04   -0.69324E-04   -0.21233E-05  1644   0.118E-02    0.163E-01
RMM:  16    -0.110185992130E+04    0.13305E-04   -0.17578E-05  1597   0.107E-02    0.163E-01
RMM:  17    -0.110185990151E+04    0.19792E-04   -0.49331E-06  1332   0.532E-03    0.845E-02
RMM:  18    -0.110185992009E+04   -0.18580E-04   -0.29029E-06  1260   0.434E-03    0.236E-02
RMM:  19    -0.110185993823E+04   -0.18138E-04   -0.47041E-06  1352   0.533E-03    0.526E-02
RMM:  20    -0.110185993664E+04    0.15884E-05   -0.16954E-06  1153   0.342E-03    0.455E-02
RMM:  21    -0.110185993738E+04   -0.73473E-06   -0.56987E-07  1073   0.215E-03
 321 F= -.11098231E+04 E0= -.11098033E+04  d E =-.149262E-01  mag=     4.4321
 curvature:  -1.63 expect dE=-0.147E+00 dE for cont linesearch -0.153E-03
 trial: gam= 0.35196 g(F)=  0.899E-01 g(S)=  0.000E+00 ort = 0.178E-01 (trialstep = 0.761E-01)
 search vector abs. value=  0.519E+00
 bond charge predicted
       N       E                     dE             d eps       ncg     rms          rms(c)
DAV:   1    -0.110186518008E+04   -0.52434E-02   -0.61467E-01  1896   0.173E+00    0.203E-01
RMM:   2    -0.110186670329E+04   -0.15232E-02   -0.13741E-02  2273   0.254E-01    0.523E-01
RMM:   3    -0.110186717142E+04   -0.46813E-03   -0.18563E-03  2232   0.103E-01    0.965E-01
RMM:   4    -0.110186782453E+04   -0.65310E-03   -0.13549E-03  2273   0.799E-02    0.156E+00
RMM:   5    -0.110186563999E+04    0.21845E-02   -0.13593E-03  2027   0.815E-02    0.412E-01
RMM:   6    -0.110186637179E+04   -0.73180E-03   -0.42548E-04  1967   0.484E-02    0.211E-01
RMM:   7    -0.110186661853E+04   -0.24674E-03   -0.14739E-04  2041   0.273E-02    0.219E-01
RMM:   8    -0.110186666046E+04   -0.41930E-04   -0.12556E-04  2014   0.267E-02    0.324E-01
RMM:   9    -0.110186659731E+04    0.63147E-04   -0.94536E-05  1946   0.219E-02    0.256E-01
RMM:  10    -0.110186658837E+04    0.89401E-05   -0.54887E-05  1788   0.149E-02    0.102E-01
RMM:  11    -0.110186666061E+04   -0.72234E-04   -0.52060E-05  1759   0.174E-02    0.241E-01
RMM:  12    -0.110186664859E+04    0.12017E-04   -0.43689E-05  1708   0.160E-02    0.305E-01
RMM:  13    -0.110186657680E+04    0.71791E-04   -0.18436E-05  1541   0.106E-02    0.240E-01
RMM:  14    -0.110186657027E+04    0.65267E-05   -0.51269E-06  1340   0.548E-03    0.111E-01
RMM:  15    -0.110186661311E+04   -0.42834E-04   -0.76619E-06  1414   0.675E-03    0.286E-02
RMM:  16    -0.110186663632E+04   -0.23213E-04   -0.47703E-06  1342   0.562E-03    0.286E-02
RMM:  17    -0.110186664117E+04   -0.48495E-05   -0.25259E-06  1204   0.430E-03    0.362E-02
RMM:  18    -0.110186664035E+04    0.82188E-06   -0.87660E-07  1107   0.276E-03
 322 F= -.11098299E+04 E0= -.11098101E+04  d E =-.681969E-02  mag=     4.4345
 ZBRENT: can't locate minimum, use default step
 trial-energy change:   -0.006820  1 .order   -0.006795   -0.007313   -0.006277
 step:   0.3044(harm=  0.5368)  dis= 0.01104  next Energy= -1109.842514 (dE=-0.194E-01)
 bond charge predicted
       N       E                     dE             d eps       ncg     rms          rms(c)
DAV:   1    -0.110186740310E+04   -0.76193E-03   -0.55322E+00  1896   0.520E+00    0.611E-01
RMM:   2    -0.110188209655E+04   -0.14693E-01   -0.12382E-01  2266   0.764E-01    0.190E+00
RMM:   3    -0.110188588308E+04   -0.37865E-02   -0.16468E-02  2246   0.306E-01    0.348E+00
RMM:   4    -0.110188573636E+04    0.14672E-03   -0.15182E-02  2250   0.267E-01    0.257E+00
RMM:   5    -0.110187831204E+04    0.74243E-02   -0.80381E-03  2116   0.203E-01    0.654E-01
RMM:   6    -0.110187995320E+04   -0.16412E-02   -0.23154E-03  2132   0.111E-01    0.299E-01
RMM:   7    -0.110188076095E+04   -0.80775E-03   -0.11462E-03  2262   0.677E-02    0.502E-01
RMM:   8    -0.110188047180E+04    0.28915E-03   -0.75854E-04  2177   0.580E-02    0.406E-01
RMM:   9    -0.110188059321E+04   -0.12141E-03   -0.75490E-04  2127   0.600E-02    0.329E-01
RMM:  10    -0.110188060138E+04   -0.81698E-05   -0.53968E-04  2153   0.462E-02    0.293E-01
RMM:  11    -0.110188045969E+04    0.14169E-03   -0.31635E-04  2115   0.395E-02    0.272E-01
RMM:  12    -0.110188045189E+04    0.77943E-05   -0.99231E-05  1854   0.224E-02    0.222E-01
RMM:  13    -0.110188040974E+04    0.42149E-04   -0.48855E-05  1637   0.149E-02    0.121E-01
RMM:  14    -0.110188042418E+04   -0.14435E-04   -0.24851E-05  1567   0.112E-02    0.925E-02
RMM:  15    -0.110188043599E+04   -0.11813E-04   -0.14757E-05  1502   0.957E-03    0.125E-01
RMM:  16    -0.110188042597E+04    0.10016E-04   -0.74006E-06  1409   0.685E-03    0.750E-02
RMM:  17    -0.110188043364E+04   -0.76675E-05   -0.34946E-06  1295   0.503E-03    0.294E-02
RMM:  18    -0.110188044574E+04   -0.12094E-04   -0.27570E-06  1267   0.429E-03    0.383E-02
RMM:  19    -0.110188045046E+04   -0.47230E-05   -0.18815E-06  1217   0.344E-03    0.131E-02
RMM:  20    -0.110188045524E+04   -0.47851E-05   -0.10462E-06  1189   0.274E-03    0.185E-02
RMM:  21    -0.110188045811E+04   -0.28695E-05   -0.61015E-07  1121   0.187E-03    0.172E-02
RMM:  22    -0.110188045931E+04   -0.11978E-05   -0.28237E-07  1042   0.127E-03    0.802E-03
RMM:  23    -0.110188046181E+04   -0.24974E-05   -0.19825E-07   971   0.972E-04    0.284E-03
RMM:  24    -0.110188046446E+04   -0.26496E-05   -0.18066E-07  1014   0.936E-04    0.606E-03
RMM:  25    -0.110188046673E+04   -0.22715E-05   -0.14647E-07   993   0.753E-04    0.586E-03
RMM:  26    -0.110188046806E+04   -0.13318E-05   -0.10273E-07   890   0.647E-04    0.330E-03
RMM:  27    -0.110188047007E+04   -0.20055E-05   -0.10631E-07   822   0.541E-04    0.225E-03
RMM:  28    -0.110188047187E+04   -0.18013E-05   -0.11342E-07   875   0.572E-04    0.426E-03
RMM:  29    -0.110188047242E+04   -0.55048E-06   -0.79145E-08   835   0.505E-04
 323 F= -.11098441E+04 E0= -.11098243E+04  d E =-.210046E-01  mag=     4.4371
 curvature:  -1.08 expect dE=-0.400E-01 dE for cont linesearch -0.360E-02
 ZBRENT: increasing intervall
 opt :   0.7609  next Energy= -1109.844390 (dE=-0.213E-01)
 bond charge predicted
       N       E                     dE             d eps       ncg     rms          rms(c)
DAV:   1    -0.110182766045E+04    0.52811E-01   -0.22136E+01  1896   0.104E+01    0.122E+00
RMM:   2    -0.110188359034E+04   -0.55930E-01   -0.49569E-01  2266   0.153E+00    0.286E+00
RMM:   3    -0.110191559387E+04   -0.32004E-01   -0.68094E-02  2220   0.626E-01    0.674E+00
RMM:   4    -0.110188585929E+04    0.29735E-01   -0.51167E-02  2281   0.484E-01    0.359E+00
RMM:   5    -0.110187968308E+04    0.61762E-02   -0.26252E-02  2120   0.366E-01    0.145E+00
RMM:   6    -0.110187933655E+04    0.34652E-03   -0.74396E-03  2203   0.189E-01    0.685E-01
RMM:   7    -0.110188146041E+04   -0.21239E-02   -0.44808E-03  2211   0.132E-01    0.104E+00
RMM:   8    -0.110187983132E+04    0.16291E-02   -0.29039E-03  2215   0.115E-01    0.549E-01
RMM:   9    -0.110188113077E+04   -0.12994E-02   -0.30710E-03  2140   0.120E-01    0.774E-01
RMM:  10    -0.110188062872E+04    0.50205E-03   -0.21542E-03  2189   0.928E-02    0.635E-01
RMM:  11    -0.110188006713E+04    0.56159E-03   -0.13179E-03  2103   0.795E-02    0.500E-01
RMM:  12    -0.110187986112E+04    0.20601E-03   -0.49547E-04  2080   0.437E-02    0.314E-01
RMM:  13    -0.110187980657E+04    0.54543E-04   -0.27116E-04  2018   0.359E-02    0.152E-01
RMM:  14    -0.110187985187E+04   -0.45292E-04   -0.12206E-04  1887   0.242E-02    0.134E-01
RMM:  15    -0.110187987186E+04   -0.19995E-04   -0.49572E-05  1749   0.174E-02    0.152E-01
RMM:  16    -0.110187987032E+04    0.15401E-05   -0.20387E-05  1604   0.101E-02    0.122E-01
RMM:  17    -0.110187988448E+04   -0.14160E-04   -0.15214E-05  1514   0.850E-03    0.613E-02
RMM:  18    -0.110187991630E+04   -0.31818E-04   -0.10024E-05  1469   0.744E-03    0.587E-02
RMM:  19    -0.110187994064E+04   -0.24345E-04   -0.88911E-06  1475   0.734E-03    0.739E-02
RMM:  20    -0.110187994152E+04   -0.88137E-06   -0.35024E-06  1274   0.458E-03
 324 F= -.11098443E+04 E0= -.11098244E+04  d E =-.211917E-01  mag=     4.4404
 curvature:  -0.09 expect dE=-0.188E-01 dE for cont linesearch -0.302E-03
 ZBRENT: bracketing found
 ZBRENT: interpolating
 opt :   0.5339  next Energy= -1109.848934 (dE=-0.259E-01)
 bond charge predicted
       N       E                     dE             d eps       ncg     rms          rms(c)
DAV:   1    -0.110187193282E+04    0.80078E-02   -0.54674E+00  1896   0.517E+00    0.609E-01
RMM:   2    -0.110188700163E+04   -0.15069E-01   -0.12277E-01  2273   0.760E-01    0.232E+00
RMM:   3    -0.110188663622E+04    0.36540E-03   -0.16058E-02  2272   0.298E-01    0.280E+00
RMM:   4    -0.110189663013E+04   -0.99939E-02   -0.14642E-02  2254   0.256E-01    0.398E+00
RMM:   5    -0.110187904293E+04    0.17587E-01   -0.11065E-02  2099   0.244E-01    0.983E-01
RMM:   6    -0.110188360691E+04   -0.45640E-02   -0.32888E-03  2081   0.135E-01    0.551E-01
RMM:   7    -0.110188496774E+04   -0.13608E-02   -0.13830E-03  2189   0.794E-02    0.564E-01
RMM:   8    -0.110188488866E+04    0.79078E-04   -0.88538E-04  2242   0.629E-02    0.411E-01
RMM:   9    -0.110188519490E+04   -0.30624E-03   -0.77624E-04  2119   0.602E-02    0.497E-01
RMM:  10    -0.110188507862E+04    0.11628E-03   -0.60985E-04  2139   0.516E-02    0.407E-01
RMM:  11    -0.110188491757E+04    0.16105E-03   -0.34132E-04  2086   0.411E-02    0.351E-01
RMM:  12    -0.110188484349E+04    0.74087E-04   -0.18157E-04  1990   0.283E-02    0.228E-01
RMM:  13    -0.110188487010E+04   -0.26614E-04   -0.62697E-05  1826   0.189E-02    0.828E-02
RMM:  14    -0.110188493188E+04   -0.61781E-04   -0.52518E-05  1741   0.163E-02    0.123E-01
RMM:  15    -0.110188492436E+04    0.75193E-05   -0.25643E-05  1613   0.121E-02    0.105E-01
RMM:  16    -0.110188491547E+04    0.88869E-05   -0.98139E-06  1400   0.749E-03    0.658E-02
RMM:  17    -0.110188491839E+04   -0.29169E-05   -0.33655E-06  1293   0.458E-03    0.184E-02
RMM:  18    -0.110188492510E+04   -0.67109E-05   -0.24324E-06  1254   0.387E-03    0.205E-02
RMM:  19    -0.110188492649E+04   -0.13840E-05   -0.15959E-06  1209   0.322E-03    0.796E-03
RMM:  20    -0.110188492757E+04   -0.10823E-05   -0.67823E-07  1117   0.227E-03    0.166E-02
RMM:  21    -0.110188492802E+04   -0.45439E-06   -0.41424E-07  1089   0.159E-03
 325 F= -.11098489E+04 E0= -.11098291E+04  d E =-.258192E-01  mag=     4.4389
 curvature:  -1.43 expect dE=-0.120E+00 dE for cont linesearch -0.133E-05
 trial: gam= 1.08536 g(F)=  0.835E-01 g(S)=  0.000E+00 ort = 0.694E-03 (trialstep = 0.125E+00)
 search vector abs. value=  0.696E+00
 bond charge predicted
       N       E                     dE             d eps       ncg     rms          rms(c)
DAV:   1    -0.110188718261E+04   -0.22550E-02   -0.22142E+00  1896   0.324E+00    0.407E-01
RMM:   2    -0.110189351852E+04   -0.63359E-02   -0.50989E-02  2240   0.480E-01    0.137E+00
RMM:   3    -0.110189337494E+04    0.14359E-03   -0.66484E-03  2228   0.195E-01    0.191E+00
RMM:   4    -0.110189499442E+04   -0.16195E-02   -0.57105E-03  2279   0.159E-01    0.190E+00
RMM:   5    -0.110189143231E+04    0.35621E-02   -0.35303E-03  2086   0.135E-01    0.518E-01
RMM:   6    -0.110189230230E+04   -0.86999E-03   -0.12757E-03  2069   0.808E-02    0.359E-01
RMM:   7    -0.110189297254E+04   -0.67024E-03   -0.82776E-04  2189   0.553E-02    0.565E-01
RMM:   8    -0.110189231760E+04    0.65495E-03   -0.65354E-04  2126   0.586E-02    0.395E-01
RMM:   9    -0.110189261990E+04   -0.30231E-03   -0.46782E-04  2088   0.456E-02    0.401E-01
RMM:  10    -0.110189235348E+04    0.26642E-03   -0.27234E-04  1997   0.364E-02    0.174E-01
RMM:  11    -0.110189243744E+04   -0.83956E-04   -0.15821E-04  1904   0.291E-02    0.278E-01
RMM:  12    -0.110189236305E+04    0.74391E-04   -0.64328E-05  1766   0.181E-02    0.232E-01
RMM:  13    -0.110189234175E+04    0.21298E-04   -0.31477E-05  1610   0.134E-02    0.140E-01
RMM:  14    -0.110189236107E+04   -0.19319E-04   -0.12790E-05  1465   0.834E-03    0.583E-02
RMM:  15    -0.110189238602E+04   -0.24958E-04   -0.11948E-05  1485   0.884E-03    0.880E-02
RMM:  16    -0.110189238206E+04    0.39640E-05   -0.58662E-06  1370   0.630E-03    0.734E-02
RMM:  17    -0.110189237979E+04    0.22730E-05   -0.20273E-06  1218   0.388E-03    0.328E-02
RMM:  18    -0.110189238659E+04   -0.67979E-05   -0.11177E-06  1143   0.282E-03    0.133E-02
RMM:  19    -0.110189239210E+04   -0.55194E-05   -0.10399E-06  1123   0.253E-03    0.160E-02
RMM:  20    -0.110189239308E+04   -0.97878E-06   -0.46804E-07  1081   0.177E-03
 326 F= -.11098567E+04 E0= -.11098369E+04  d E =-.780797E-02  mag=     4.4431
 trial-energy change:   -0.007808  1 .order   -0.007811   -0.010532   -0.005090
 step:   0.2418(harm=  0.2418)  dis= 0.01009  next Energy= -1109.859087 (dE=-0.102E-01)
 bond charge predicted
       N       E                     dE             d eps       ncg     rms          rms(c)
DAV:   1    -0.110188995156E+04    0.24405E-02   -0.19375E+00  1896   0.303E+00    0.380E-01
RMM:   2    -0.110189559482E+04   -0.56433E-02   -0.44540E-02  2239   0.449E-01    0.141E+00
RMM:   3    -0.110189496905E+04    0.62577E-03   -0.57916E-03  2232   0.181E-01    0.171E+00
RMM:   4    -0.110189684446E+04   -0.18754E-02   -0.51759E-03  2266   0.154E-01    0.167E+00
RMM:   5    -0.110189356552E+04    0.32789E-02   -0.26870E-03  2081   0.120E-01    0.469E-01
RMM:   6    -0.110189442940E+04   -0.86389E-03   -0.10867E-03  2056   0.741E-02    0.310E-01
RMM:   7    -0.110189504891E+04   -0.61951E-03   -0.75979E-04  2189   0.532E-02    0.525E-01
RMM:   8    -0.110189439612E+04    0.65279E-03   -0.56583E-04  2137   0.538E-02    0.232E-01
RMM:   9    -0.110189471576E+04   -0.31964E-03   -0.39495E-04  2095   0.415E-02    0.330E-01
RMM:  10    -0.110189449077E+04    0.22499E-03   -0.21711E-04  1939   0.313E-02    0.180E-01
RMM:  11    -0.110189450142E+04   -0.10648E-04   -0.10575E-04  1864   0.232E-02    0.184E-01
RMM:  12    -0.110189448445E+04    0.16975E-04   -0.38847E-05  1621   0.134E-02    0.124E-01
RMM:  13    -0.110189448610E+04   -0.16557E-05   -0.26174E-05  1556   0.126E-02    0.692E-02
RMM:  14    -0.110189449996E+04   -0.13856E-04   -0.12092E-05  1451   0.822E-03    0.853E-02
RMM:  15    -0.110189449593E+04    0.40312E-05   -0.70204E-06  1377   0.682E-03    0.709E-02
RMM:  16    -0.110189449563E+04    0.30013E-06   -0.25354E-06  1256   0.421E-03
 327 F= -.11098591E+04 E0= -.11098393E+04  d E =-.102326E-01  mag=     4.4466
 curvature:  -1.00 expect dE=-0.131E+00 dE for cont linesearch -0.193E-06
 trial: gam= 1.52935 g(F)=  0.131E+00 g(S)=  0.000E+00 ort = 0.367E-03 (trialstep = 0.586E-01)
 search vector abs. value=  0.176E+01
 bond charge predicted
       N       E                     dE             d eps       ncg     rms          rms(c)
DAV:   1    -0.110189843775E+04   -0.39418E-02   -0.12374E+00  1896   0.243E+00    0.292E-01
RMM:   2    -0.110190164055E+04   -0.32028E-02   -0.26925E-02  2225   0.356E-01    0.831E-01
RMM:   3    -0.110190280242E+04   -0.11619E-02   -0.37383E-03  2215   0.148E-01    0.178E+00
RMM:   4    -0.110190216392E+04    0.63850E-03   -0.36197E-03  2258   0.127E-01    0.145E+00
RMM:   5    -0.110190089779E+04    0.12661E-02   -0.22975E-03  2087   0.108E-01    0.491E-01
RMM:   6    -0.110190129047E+04   -0.39268E-03   -0.85948E-04  2019   0.679E-02    0.220E-01
RMM:   7    -0.110190141663E+04   -0.12616E-03   -0.29066E-04  2146   0.338E-02    0.237E-01
RMM:   8    -0.110190133122E+04    0.85408E-04   -0.16849E-04  2127   0.289E-02    0.132E-01
RMM:   9    -0.110190143398E+04   -0.10275E-03   -0.16338E-04  2013   0.274E-02    0.244E-01
RMM:  10    -0.110190137797E+04    0.56001E-04   -0.14038E-04  2056   0.262E-02    0.103E-01
RMM:  11    -0.110190136523E+04    0.12747E-04   -0.71984E-05  1825   0.200E-02    0.106E-01
