       N       E                     dE             d eps       ncg     rms          rms(c)
DAV:   1     0.803547787394E+04    0.80355E+04   -0.30844E+05  1896   0.134E+03
DAV:   2     0.824574304559E+03   -0.72109E+04   -0.64818E+04  2220   0.409E+02
DAV:   3    -0.110614629610E+04   -0.19307E+04   -0.18291E+04  3168   0.213E+02
DAV:   4    -0.126800965261E+04   -0.16186E+03   -0.15028E+03  2988   0.694E+01
DAV:   5    -0.127716884531E+04   -0.91592E+01   -0.83085E+01  3168   0.156E+01    0.151E+02
RMM:   6    -0.173137174219E+04   -0.45420E+03   -0.31348E+03  2464   0.134E+02    0.481E+02
RMM:   7    -0.150522123151E+04    0.22615E+03   -0.23245E+02  1912   0.468E+01    0.290E+02
RMM:   8    -0.110530135200E+04    0.39992E+03   -0.48624E+02  2108   0.450E+01    0.852E+01
RMM:   9    -0.132984954269E+04   -0.22455E+03   -0.96009E+01  2050   0.210E+01    0.183E+02
RMM:  10    -0.122806454608E+04    0.10178E+03   -0.80667E+01  1978   0.205E+01    0.148E+02
RMM:  11    -0.111898321687E+04    0.10908E+03   -0.81291E+01  1988   0.206E+01    0.122E+02
RMM:  12    -0.115603054256E+04   -0.37047E+02   -0.53880E+01  2058   0.153E+01    0.112E+02
RMM:  13    -0.110096515219E+04    0.55065E+02   -0.48915E+01  2033   0.153E+01    0.993E+01
RMM:  14    -0.108263271142E+04    0.18332E+02   -0.26787E+01  2074   0.106E+01    0.828E+01
RMM:  15    -0.109530449195E+04   -0.12672E+02   -0.25354E+01  1961   0.116E+01    0.922E+01
RMM:  16    -0.107242741857E+04    0.22877E+02   -0.17298E+01  2032   0.900E+00    0.795E+01
RMM:  17    -0.106333209957E+04    0.90953E+01   -0.88587E+00  2037   0.627E+00    0.511E+01
RMM:  18    -0.106295671313E+04    0.37539E+00   -0.35043E+00  2046   0.387E+00    0.457E+01
RMM:  19    -0.106635566655E+04   -0.33990E+01   -0.35378E+00  2046   0.396E+00    0.509E+01
RMM:  20    -0.106571130041E+04    0.64437E+00   -0.23972E+00  2047   0.339E+00    0.517E+01
RMM:  21    -0.106198687029E+04    0.37244E+01   -0.16107E+00  2038   0.275E+00    0.322E+01
RMM:  22    -0.106296703047E+04   -0.98016E+00   -0.16881E+00  1994   0.272E+00    0.313E+01
RMM:  23    -0.106348765128E+04   -0.52062E+00   -0.67921E-01  2034   0.176E+00    0.265E+01
RMM:  24    -0.106378868468E+04   -0.30103E+00   -0.37032E-01  2029   0.133E+00    0.229E+01
RMM:  25    -0.106407943574E+04   -0.29075E+00   -0.24877E-01  2049   0.103E+00    0.217E+01
RMM:  26    -0.106416182718E+04   -0.82391E-01   -0.70370E-02  1987   0.584E-01    0.206E+01
RMM:  27    -0.106445059693E+04   -0.28877E+00   -0.56015E-02  2064   0.464E-01    0.223E+01
RMM:  28    -0.106453758777E+04   -0.86991E-01   -0.48459E-02  1979   0.471E-01    0.218E+01
RMM:  29    -0.106595150081E+04   -0.14139E+01   -0.42674E-01  1971   0.129E+00    0.261E+01
RMM:  30    -0.106743103769E+04   -0.14795E+01   -0.45776E-01  1971   0.140E+00    0.247E+01
RMM:  31    -0.106753047002E+04   -0.99432E-01   -0.26087E-01  1987   0.111E+00    0.231E+01
RMM:  32    -0.106772303596E+04   -0.19257E+00   -0.10964E-01  2037   0.700E-01    0.222E+01
RMM:  33    -0.106775695591E+04   -0.33920E-01   -0.18937E-02  2334   0.239E-01    0.224E+01
RMM:  34    -0.106801211833E+04   -0.25516E+00   -0.54057E-02  2055   0.441E-01    0.222E+01
RMM:  35    -0.106805599688E+04   -0.43879E-01   -0.32218E-02  1951   0.382E-01    0.228E+01
RMM:  36    -0.106789959508E+04    0.15640E+00   -0.96677E-02  2027   0.635E-01    0.229E+01
RMM:  37    -0.106792138847E+04   -0.21793E-01   -0.22180E-02  1973   0.342E-01    0.231E+01
RMM:  38    -0.106792533879E+04   -0.39503E-02   -0.13969E-02  2254   0.213E-01    0.231E+01
RMM:  39    -0.106802784075E+04   -0.10250E+00   -0.98048E-02  1984   0.612E-01    0.223E+01
RMM:  40    -0.106822908029E+04   -0.20124E+00   -0.10335E-01  2049   0.641E-01    0.232E+01
RMM:  41    -0.106835115330E+04   -0.12207E+00   -0.39449E-02  2102   0.408E-01    0.238E+01
RMM:  42    -0.106844154187E+04   -0.90389E-01   -0.27120E-02  2045   0.387E-01    0.250E+01
RMM:  43    -0.106845042359E+04   -0.88817E-02   -0.70690E-02  2026   0.533E-01    0.249E+01
RMM:  44    -0.106841757487E+04    0.32849E-01   -0.44634E-02  2076   0.405E-01    0.250E+01
RMM:  45    -0.106799525188E+04    0.42232E+00   -0.10115E-01  2046   0.556E-01    0.223E+01
RMM:  46    -0.106830998834E+04   -0.31474E+00   -0.37815E-01  1968   0.114E+00    0.229E+01
RMM:  47    -0.106789165565E+04    0.41833E+00   -0.81551E-01  2025   0.160E+00    0.239E+01
RMM:  48    -0.106741356261E+04    0.47809E+00   -0.11023E+00  2049   0.189E+00    0.237E+01
RMM:  49    -0.106838988621E+04   -0.97632E+00   -0.33412E-01  2252   0.927E-01    0.234E+01
RMM:  50    -0.106713187965E+04    0.12580E+01   -0.36530E-01  2072   0.110E+00    0.240E+01
RMM:  51    -0.106408525598E+04    0.30466E+01   -0.10139E+00  1940   0.215E+00    0.268E+01
RMM:  52    -0.106659925108E+04   -0.25140E+01   -0.33350E-01  2124   0.108E+00    0.282E+01
RMM:  53    -0.106602157579E+04    0.57768E+00   -0.21329E-01  2054   0.881E-01    0.283E+01
RMM:  54    -0.106586422254E+04    0.15735E+00   -0.79744E-02  2353   0.463E-01    0.287E+01
RMM:  55    -0.106537493739E+04    0.48929E+00   -0.22266E-02  2401   0.246E-01    0.289E+01
RMM:  56    -0.106744987644E+04   -0.20749E+01   -0.13729E+00  1933   0.228E+00    0.381E+01
RMM:  57    -0.106927619863E+04   -0.18263E+01   -0.49342E-01  1996   0.160E+00    0.320E+01
RMM:  58    -0.106970043090E+04   -0.42423E+00   -0.18459E-01  2171   0.810E-01    0.290E+01
RMM:  59    -0.107077839222E+04   -0.10780E+01   -0.14989E-01  2124   0.788E-01    0.288E+01
RMM:  60    -0.107090632556E+04   -0.12793E+00   -0.22782E-01  1981   0.939E-01    0.284E+01
RMM:  61    -0.107629339682E+04   -0.53871E+01   -0.13851E+00  2035   0.242E+00    0.529E+01
RMM:  62    -0.106973144239E+04    0.65620E+01   -0.10241E+00  1948   0.237E+00    0.331E+01
RMM:  63    -0.106934386777E+04    0.38757E+00   -0.15875E-01  1971   0.906E-01    0.306E+01
RMM:  64    -0.106994000866E+04   -0.59614E+00   -0.10367E-01  1975   0.659E-01    0.310E+01
RMM:  65    -0.106970051214E+04    0.23950E+00   -0.28299E-02  2063   0.356E-01    0.311E+01
RMM:  66    -0.107808013702E+04   -0.83796E+01   -0.42883E+00  1974   0.390E+00    0.440E+01
RMM:  67    -0.107562109834E+04    0.24590E+01   -0.94841E-01  1901   0.227E+00    0.368E+01
RMM:  68    -0.107638396835E+04   -0.76287E+00   -0.28268E-01  2136   0.105E+00    0.351E+01
RMM:  69    -0.107754439355E+04   -0.11604E+01   -0.17238E-01  2211   0.691E-01    0.329E+01
RMM:  70    -0.107803105211E+04   -0.48666E+00   -0.54465E-02  2158   0.440E-01    0.331E+01
RMM:  71    -0.108134131485E+04   -0.33103E+01   -0.16676E+00  1976   0.247E+00    0.354E+01
RMM:  72    -0.108394556762E+04   -0.26043E+01   -0.10443E+00  2013   0.204E+00    0.385E+01
RMM:  73    -0.108481448825E+04   -0.86892E+00   -0.88267E-01  2032   0.182E+00    0.345E+01
RMM:  74    -0.108655234076E+04   -0.17379E+01   -0.60235E-01  2181   0.147E+00    0.363E+01
RMM:  75    -0.108801295905E+04   -0.14606E+01   -0.45932E-01  2059   0.125E+00    0.379E+01
RMM:  76    -0.108641813052E+04    0.15948E+01   -0.79515E-01  1953   0.190E+00    0.360E+01
RMM:  77    -0.108656383062E+04   -0.14570E+00   -0.21363E-01  1950   0.105E+00    0.299E+01
RMM:  78    -0.108691024942E+04   -0.34642E+00   -0.16964E-01  2059   0.826E-01    0.289E+01
RMM:  79    -0.108706445796E+04   -0.15421E+00   -0.99585E-02  2096   0.605E-01    0.288E+01
RMM:  80    -0.108719812950E+04   -0.13367E+00   -0.33367E-02  2264   0.363E-01    0.293E+01
RMM:  81    -0.108585761582E+04    0.13405E+01   -0.57374E-01  1950   0.158E+00    0.271E+01
RMM:  82    -0.108549450037E+04    0.36312E+00   -0.35681E-01  1995   0.136E+00    0.222E+01
RMM:  83    -0.108646134077E+04   -0.96684E+00   -0.25891E-01  2007   0.107E+00    0.210E+01
RMM:  84    -0.108752510354E+04   -0.10638E+01   -0.27182E-01  2017   0.105E+00    0.205E+01
RMM:  85    -0.108769597744E+04   -0.17087E+00   -0.20543E-01  2180   0.869E-01    0.191E+01
RMM:  86    -0.108834693837E+04   -0.65096E+00   -0.41048E-01  2029   0.128E+00    0.275E+01
RMM:  87    -0.108797018476E+04    0.37675E+00   -0.26505E-01  2026   0.108E+00    0.200E+01
RMM:  88    -0.108837682054E+04   -0.40664E+00   -0.22368E-01  1997   0.101E+00    0.210E+01
RMM:  89    -0.108848930994E+04   -0.11249E+00   -0.61315E-02  2187   0.472E-01    0.206E+01
RMM:  90    -0.108848138380E+04    0.79261E-02   -0.42118E-02  2121   0.377E-01    0.200E+01
RMM:  91    -0.108917136872E+04   -0.68998E+00   -0.72971E-01  1964   0.173E+00    0.291E+01
RMM:  92    -0.108868475351E+04    0.48662E+00   -0.23211E-01  2018   0.107E+00    0.270E+01
RMM:  93    -0.108918475715E+04   -0.50000E+00   -0.68195E-02  2253   0.460E-01    0.275E+01
RMM:  94    -0.108921015392E+04   -0.25397E-01   -0.64090E-02  2032   0.505E-01    0.255E+01
RMM:  95    -0.108995476075E+04   -0.74461E+00   -0.12780E-01  1936   0.744E-01    0.255E+01
RMM:  96    -0.109132673858E+04   -0.13720E+01   -0.79410E-01  1983   0.167E+00    0.203E+01
RMM:  97    -0.109157866889E+04   -0.25193E+00   -0.22688E-01  2019   0.108E+00    0.197E+01
RMM:  98    -0.109215701538E+04   -0.57835E+00   -0.11598E-01  2074   0.672E-01    0.192E+01
RMM:  99    -0.109239384341E+04   -0.23683E+00   -0.37580E-02  2120   0.362E-01    0.197E+01
RMM: 100    -0.109272421885E+04   -0.33038E+00   -0.63894E-02  1941   0.463E-01    0.198E+01
RMM: 101    -0.109374989067E+04   -0.10257E+01   -0.25593E-01  1956   0.998E-01    0.239E+01
RMM: 102    -0.109369963356E+04    0.50257E-01   -0.10016E-01  2072   0.700E-01    0.214E+01
RMM: 103    -0.109394696165E+04   -0.24733E+00   -0.94424E-02  2016   0.617E-01    0.208E+01
RMM: 104    -0.109392580843E+04    0.21153E-01   -0.27358E-02  2022   0.348E-01    0.196E+01
RMM: 105    -0.109379327926E+04    0.13253E+00   -0.20311E-02  2066   0.313E-01    0.191E+01
RMM: 106    -0.109399812999E+04   -0.20485E+00   -0.11026E-01  1958   0.695E-01    0.212E+01
RMM: 107    -0.109391847835E+04    0.79652E-01   -0.35142E-02  2014   0.382E-01    0.207E+01
RMM: 108    -0.109396566204E+04   -0.47184E-01   -0.17306E-02  1954   0.286E-01    0.210E+01
RMM: 109    -0.109395856230E+04    0.70997E-02   -0.54601E-03  2112   0.158E-01    0.215E+01
RMM: 110    -0.109388140790E+04    0.77154E-01   -0.16022E-02  1994   0.283E-01    0.219E+01
RMM: 111    -0.109391335995E+04   -0.31952E-01   -0.13715E-01  2016   0.776E-01    0.245E+01
RMM: 112    -0.109376560985E+04    0.14775E+00   -0.38429E-02  2004   0.456E-01    0.236E+01
RMM: 113    -0.109375638981E+04    0.92200E-02   -0.12405E-02  2354   0.209E-01    0.232E+01
RMM: 114    -0.109378393876E+04   -0.27549E-01   -0.64084E-03  2091   0.156E-01    0.232E+01
RMM: 115    -0.109357304439E+04    0.21089E+00   -0.23774E-02  1981   0.332E-01    0.219E+01
RMM: 116    -0.109422551552E+04   -0.65247E+00   -0.26624E-01  2019   0.103E+00    0.245E+01
RMM: 117    -0.109397563532E+04    0.24988E+00   -0.24684E-01  1979   0.112E+00    0.233E+01
RMM: 118    -0.109417000853E+04   -0.19437E+00   -0.65079E-02  1975   0.594E-01    0.240E+01
RMM: 119    -0.109406652867E+04    0.10348E+00   -0.17823E-02  2181   0.299E-01    0.242E+01
RMM: 120    -0.109406704336E+04   -0.51468E-03   -0.71394E-03  2204   0.169E-01
   1 F= -.11011604E+04 E0= -.11011339E+04  d E =-.110116E+04  mag=    26.6605
       N       E                     dE             d eps       ncg     rms          rms(c)
DAV:   1    -0.110033403647E+04   -0.62675E+01   -0.33589E+02  2304   0.567E+01    0.422E+01
RMM:   2    -0.125957094192E+04   -0.15924E+03   -0.78380E+01  1953   0.212E+01    0.149E+02
RMM:   3    -0.114469151935E+04    0.11488E+03   -0.79540E+01  1950   0.233E+01    0.101E+02
RMM:   4    -0.109643463544E+04    0.48257E+02   -0.29823E+01  2082   0.118E+01    0.586E+01
RMM:   5    -0.110233087476E+04   -0.58962E+01   -0.19986E+01  2040   0.944E+00    0.772E+01
RMM:   6    -0.111784976565E+04   -0.15519E+02   -0.13955E+01  2022   0.818E+00    0.869E+01
RMM:   7    -0.109662686389E+04    0.21223E+02   -0.81025E+00  2065   0.636E+00    0.479E+01
RMM:   8    -0.109149872192E+04    0.51281E+01   -0.27997E+00  2049   0.354E+00    0.352E+01
RMM:   9    -0.109235604533E+04   -0.85732E+00   -0.26140E+00  2061   0.298E+00    0.378E+01
RMM:  10    -0.109195327870E+04    0.40277E+00   -0.17380E+00  2024   0.292E+00    0.306E+01
RMM:  11    -0.109200366182E+04   -0.50383E-01   -0.60248E-01  2078   0.170E+00    0.284E+01
RMM:  12    -0.109192615137E+04    0.77510E-01   -0.36935E-01  2030   0.138E+00    0.207E+01
RMM:  13    -0.109256020246E+04   -0.63405E+00   -0.26658E-01  2069   0.110E+00    0.231E+01
RMM:  14    -0.109262079701E+04   -0.60595E-01   -0.23317E-01  2049   0.104E+00    0.206E+01
RMM:  15    -0.109306420208E+04   -0.44341E+00   -0.31219E-01  2002   0.116E+00    0.206E+01
RMM:  16    -0.109322744074E+04   -0.16324E+00   -0.37016E-01  2098   0.117E+00    0.186E+01
RMM:  17    -0.109357171484E+04   -0.34427E+00   -0.47634E-01  1999   0.144E+00    0.165E+01
RMM:  18    -0.109390439454E+04   -0.33268E+00   -0.40664E-01  2112   0.133E+00    0.158E+01
RMM:  19    -0.109404356107E+04   -0.13917E+00   -0.28213E-01  2026   0.114E+00    0.149E+01
RMM:  20    -0.109406359916E+04   -0.20038E-01   -0.11408E-01  2154   0.652E-01    0.138E+01
RMM:  21    -0.109433791816E+04   -0.27432E+00   -0.16268E-01  2022   0.831E-01    0.173E+01
RMM:  22    -0.109466103790E+04   -0.32312E+00   -0.18118E-01  2013   0.858E-01    0.135E+01
RMM:  23    -0.109507467276E+04   -0.41363E+00   -0.24065E-01  2047   0.108E+00    0.979E+00
RMM:  24    -0.109535599897E+04   -0.28133E+00   -0.23490E-01  2137   0.105E+00    0.987E+00
RMM:  25    -0.109574779312E+04   -0.39179E+00   -0.12829E-01  1993   0.743E-01    0.881E+00
RMM:  26    -0.109581357307E+04   -0.65780E-01   -0.49743E-02  2102   0.473E-01    0.757E+00
RMM:  27    -0.109600740388E+04   -0.19383E+00   -0.39915E-02  2079   0.374E-01    0.737E+00
RMM:  28    -0.109635512643E+04   -0.34772E+00   -0.10881E-01  1998   0.694E-01    0.700E+00
RMM:  29    -0.109662262236E+04   -0.26750E+00   -0.70696E-02  2022   0.593E-01    0.622E+00
RMM:  30    -0.109707274400E+04   -0.45012E+00   -0.65861E-02  2084   0.499E-01    0.100E+01
RMM:  31    -0.109726674010E+04   -0.19400E+00   -0.54785E-02  2033   0.491E-01    0.104E+01
RMM:  32    -0.109733408193E+04   -0.67342E-01   -0.18281E-02  2135   0.241E-01    0.968E+00
RMM:  33    -0.109757317644E+04   -0.23909E+00   -0.28342E-02  2007   0.266E-01    0.875E+00
RMM:  34    -0.109791835901E+04   -0.34518E+00   -0.47444E-02  2063   0.354E-01    0.764E+00
RMM:  35    -0.109799638357E+04   -0.78025E-01   -0.28968E-02  2045   0.332E-01    0.633E+00
RMM:  36    -0.109825508660E+04   -0.25870E+00   -0.29993E-02  2098   0.252E-01    0.482E+00
RMM:  37    -0.109826975808E+04   -0.14671E-01   -0.74435E-03  2033   0.186E-01    0.474E+00
RMM:  38    -0.109856263449E+04   -0.29288E+00   -0.21762E-02  1967   0.226E-01    0.750E+00
RMM:  39    -0.109861350871E+04   -0.50874E-01   -0.12265E-02  2010   0.238E-01    0.973E+00
RMM:  40    -0.109859694161E+04    0.16567E-01   -0.58920E-03  2155   0.149E-01    0.978E+00
RMM:  41    -0.109855243464E+04    0.44507E-01   -0.74588E-03  2004   0.151E-01    0.699E+00
RMM:  42    -0.109873894065E+04   -0.18651E+00   -0.11390E-02  1994   0.192E-01    0.444E+00
RMM:  43    -0.109893285236E+04   -0.19391E+00   -0.14482E-02  1976   0.258E-01    0.436E+00
RMM:  44    -0.109896760780E+04   -0.34755E-01   -0.57277E-03  2184   0.141E-01    0.564E+00
RMM:  45    -0.109895325180E+04    0.14356E-01   -0.26425E-03  2065   0.104E-01    0.582E+00
RMM:  46    -0.109894801915E+04    0.52327E-02   -0.61530E-04  2290   0.426E-02    0.604E+00
RMM:  47    -0.109896009236E+04   -0.12073E-01   -0.54606E-03  2007   0.139E-01    0.414E+00
RMM:  48    -0.109903355696E+04   -0.73465E-01   -0.48371E-03  2100   0.136E-01    0.316E+00
RMM:  49    -0.109909705253E+04   -0.63496E-01   -0.56384E-03  2158   0.133E-01    0.345E+00
RMM:  50    -0.109915301971E+04   -0.55967E-01   -0.50087E-03  2245   0.120E-01    0.451E+00
RMM:  51    -0.109918180831E+04   -0.28789E-01   -0.37434E-03  2160   0.109E-01    0.464E+00
RMM:  52    -0.109916753657E+04    0.14272E-01   -0.13004E-02  1996   0.216E-01    0.523E+00
RMM:  53    -0.109925160896E+04   -0.84072E-01   -0.81786E-03  1973   0.209E-01    0.532E+00
RMM:  54    -0.109933468600E+04   -0.83077E-01   -0.39880E-03  2093   0.106E-01    0.503E+00
RMM:  55    -0.109940321426E+04   -0.68528E-01   -0.42000E-03  2120   0.108E-01    0.479E+00
RMM:  56    -0.109945923983E+04   -0.56026E-01   -0.39285E-03  2146   0.100E-01    0.442E+00
RMM:  57    -0.109957702658E+04   -0.11779E+00   -0.17536E-02  1984   0.234E-01    0.382E+00
RMM:  58    -0.109961205720E+04   -0.35031E-01   -0.56227E-03  2111   0.146E-01    0.358E+00
RMM:  59    -0.109967187239E+04   -0.59815E-01   -0.70911E-03  2173   0.131E-01    0.308E+00
RMM:  60    -0.109979136895E+04   -0.11950E+00   -0.88082E-03  2123   0.131E-01    0.256E+00
RMM:  61    -0.109983518223E+04   -0.43813E-01   -0.44883E-03  2275   0.102E-01    0.210E+00
RMM:  62    -0.109988410606E+04   -0.48924E-01   -0.62414E-03  2088   0.119E-01    0.398E+00
RMM:  63    -0.109987427505E+04    0.98310E-02   -0.72747E-03  1996   0.170E-01    0.615E+00
RMM:  64    -0.109987908201E+04   -0.48070E-02   -0.51109E-03  1959   0.142E-01    0.771E+00
RMM:  65    -0.109988151712E+04   -0.24351E-02   -0.27245E-03  1992   0.973E-02    0.852E+00
RMM:  66    -0.109987754041E+04    0.39767E-02   -0.11105E-03  2086   0.567E-02    0.872E+00
RMM:  67    -0.109980873195E+04    0.68808E-01   -0.24644E-03  1968   0.826E-02    0.905E+00
RMM:  68    -0.109982566478E+04   -0.16933E-01   -0.70957E-04  1987   0.492E-02    0.922E+00
RMM:  69    -0.109981578971E+04    0.98751E-02   -0.29701E-04  1857   0.352E-02    0.910E+00
RMM:  70    -0.109981746700E+04   -0.16773E-02   -0.17231E-04  1876   0.266E-02    0.916E+00
RMM:  71    -0.109984538858E+04   -0.27922E-01   -0.12621E-03  1906   0.620E-02    0.827E+00
RMM:  72    -0.109990382018E+04   -0.58432E-01   -0.37650E-03  2000   0.103E-01    0.672E+00
RMM:  73    -0.109998054192E+04   -0.76722E-01   -0.28131E-03  2087   0.835E-02    0.490E+00
RMM:  74    -0.110006212271E+04   -0.81581E-01   -0.38031E-03  2022   0.106E-01    0.296E+00
RMM:  75    -0.110012465367E+04   -0.62531E-01   -0.42044E-03  2016   0.120E-01    0.194E+00
RMM:  76    -0.110015164617E+04   -0.26993E-01   -0.34608E-03  1983   0.120E-01    0.199E+00
RMM:  77    -0.110012271441E+04    0.28932E-01   -0.13581E-03  1952   0.690E-02    0.259E+00
RMM:  78    -0.110013554210E+04   -0.12828E-01   -0.13922E-03  1929   0.839E-02    0.257E+00
RMM:  79    -0.110013619809E+04   -0.65599E-03   -0.25726E-04  2115   0.286E-02    0.256E+00
RMM:  80    -0.110014226222E+04   -0.60641E-02   -0.20990E-04  1866   0.253E-02    0.269E+00
RMM:  81    -0.110014681676E+04   -0.45545E-02   -0.74393E-04  1868   0.461E-02    0.237E+00
RMM:  82    -0.110023303803E+04   -0.86221E-01   -0.22466E-02  1913   0.262E-01    0.246E+00
RMM:  83    -0.110025590852E+04   -0.22870E-01   -0.85316E-03  2078   0.154E-01    0.268E+00
RMM:  84    -0.110034428399E+04   -0.88375E-01   -0.60045E-03  2153   0.100E-01    0.266E+00
RMM:  85    -0.110044094523E+04   -0.96661E-01   -0.70628E-03  2121   0.120E-01    0.186E+00
RMM:  86    -0.110051983350E+04   -0.78888E-01   -0.45556E-03  2196   0.969E-02    0.210E+00
RMM:  87    -0.110059833307E+04   -0.78500E-01   -0.59675E-03  2139   0.113E-01    0.115E+00
RMM:  88    -0.110064928547E+04   -0.50952E-01   -0.41493E-03  2212   0.930E-02    0.149E+00
RMM:  89    -0.110064291267E+04    0.63728E-02   -0.13860E-03  1945   0.785E-02    0.180E+00
RMM:  90    -0.110064396635E+04   -0.10537E-02   -0.57679E-04  1922   0.450E-02    0.198E+00
RMM:  91    -0.110064259544E+04    0.13709E-02   -0.17962E-04  1932   0.209E-02    0.215E+00
RMM:  92    -0.110066514363E+04   -0.22548E-01   -0.37794E-04  1940   0.295E-02    0.233E+00
RMM:  93    -0.110066278631E+04    0.23573E-02   -0.36357E-04  1852   0.388E-02    0.227E+00
RMM:  94    -0.110067966004E+04   -0.16874E-01   -0.39555E-04  1996   0.327E-02    0.248E+00
RMM:  95    -0.110070186913E+04   -0.22209E-01   -0.78661E-04  2024   0.474E-02    0.304E+00
RMM:  96    -0.110070169787E+04    0.17126E-03   -0.14209E-03  1991   0.658E-02    0.349E+00
RMM:  97    -0.110068259013E+04    0.19108E-01   -0.34208E-03  1960   0.943E-02    0.333E+00
RMM:  98    -0.110069240253E+04   -0.98124E-02   -0.42130E-03  2084   0.918E-02    0.331E+00
RMM:  99    -0.110068833120E+04    0.40713E-02   -0.49067E-03  2109   0.947E-02    0.329E+00
RMM: 100    -0.110069586055E+04   -0.75293E-02   -0.15693E-03  1856   0.816E-02    0.325E+00
RMM: 101    -0.110069714234E+04   -0.12818E-02   -0.31488E-04  1845   0.336E-02    0.331E+00
RMM: 102    -0.110069319171E+04    0.39506E-02   -0.80469E-04  1889   0.505E-02    0.342E+00
RMM: 103    -0.110070419491E+04   -0.11003E-01   -0.38254E-04  1842   0.333E-02    0.351E+00
RMM: 104    -0.110070787333E+04   -0.36784E-02   -0.43622E-04  1977   0.294E-02    0.365E+00
RMM: 105    -0.110071741053E+04   -0.95372E-02   -0.67550E-04  1915   0.371E-02    0.383E+00
RMM: 106    -0.110074152079E+04   -0.24110E-01   -0.68625E-03  1905   0.129E-01    0.426E+00
RMM: 107    -0.110083445949E+04   -0.92939E-01   -0.68847E-02  1976   0.406E-01    0.633E+00
RMM: 108    -0.110086364784E+04   -0.29188E-01   -0.19735E-02  2009   0.256E-01    0.721E+00
RMM: 109    -0.110084731322E+04    0.16335E-01   -0.46249E-03  2165   0.124E-01    0.757E+00
RMM: 110    -0.110083894224E+04    0.83710E-02   -0.10590E-03  2006   0.697E-02    0.775E+00
RMM: 111    -0.110083687067E+04    0.20716E-02   -0.30545E-04  2085   0.301E-02    0.787E+00
RMM: 112    -0.110083997507E+04   -0.31044E-02   -0.28498E-04  1879   0.359E-02    0.799E+00
RMM: 113    -0.110085728291E+04   -0.17308E-01   -0.13656E-03  1864   0.640E-02    0.837E+00
RMM: 114    -0.110085539423E+04    0.18887E-02   -0.35541E-04  1893   0.383E-02    0.850E+00
RMM: 115    -0.110084448518E+04    0.10909E-01   -0.35118E-04  1870   0.362E-02    0.848E+00
RMM: 116    -0.110083708513E+04    0.74000E-02   -0.35575E-04  1914   0.324E-02    0.845E+00
RMM: 117    -0.110084195053E+04   -0.48654E-02   -0.59275E-04  1873   0.452E-02    0.865E+00
RMM: 118    -0.110082346847E+04    0.18482E-01   -0.37773E-04  2080   0.343E-02    0.856E+00
RMM: 119    -0.110081736107E+04    0.61074E-02   -0.14898E-04  2125   0.152E-02    0.851E+00
RMM: 120    -0.110081524558E+04    0.21155E-02   -0.38747E-05  1748   0.808E-03
   2 F= -.11077156E+04 E0= -.11077004E+04  d E =-.655518E+01  mag=    19.4432
       N       E                     dE             d eps       ncg     rms          rms(c)
DAV:   1    -0.110394390484E+04   -0.31265E+01   -0.98071E+01  2148   0.302E+01    0.149E+01
RMM:   2    -0.111900658592E+04   -0.15063E+02   -0.18998E+01  1905   0.114E+01    0.725E+01
RMM:   3    -0.110594603406E+04    0.13061E+02   -0.10328E+01  2021   0.720E+00    0.322E+01
RMM:   4    -0.110416085778E+04    0.17852E+01   -0.31624E+00  2152   0.388E+00    0.359E+01
RMM:   5    -0.110229920765E+04    0.18617E+01   -0.18648E+00  2135   0.301E+00    0.244E+01
RMM:   6    -0.110325122986E+04   -0.95202E+00   -0.13799E+00  2108   0.250E+00    0.328E+01
RMM:   7    -0.110227013064E+04    0.98110E+00   -0.10631E+00  2102   0.235E+00    0.205E+01
RMM:   8    -0.110202057397E+04    0.24956E+00   -0.59377E-01  2033   0.178E+00    0.149E+01
RMM:   9    -0.110210115417E+04   -0.80580E-01   -0.35104E-01  2121   0.122E+00    0.167E+01
RMM:  10    -0.110205191962E+04    0.49235E-01   -0.32716E-01  2098   0.123E+00    0.959E+00
RMM:  11    -0.110199326641E+04    0.58653E-01   -0.29536E-01  2088   0.120E+00    0.820E+00
RMM:  12    -0.110205431228E+04   -0.61046E-01   -0.18488E-01  2137   0.940E-01    0.745E+00
RMM:  13    -0.110201860316E+04    0.35709E-01   -0.10170E-01  2098   0.662E-01    0.710E+00
RMM:  14    -0.110205237684E+04   -0.33774E-01   -0.78733E-02  2108   0.568E-01    0.914E+00
RMM:  15    -0.110199245197E+04    0.59925E-01   -0.69369E-02  2092   0.581E-01    0.452E+00
RMM:  16    -0.110202465809E+04   -0.32206E-01   -0.56047E-02  2066   0.526E-01    0.499E+00
RMM:  17    -0.110200326895E+04    0.21389E-01   -0.26211E-02  2098   0.345E-01    0.328E+00
RMM:  18    -0.110201064428E+04   -0.73753E-02   -0.91931E-03  2084   0.212E-01    0.318E+00
RMM:  19    -0.110202755195E+04   -0.16908E-01   -0.13418E-02  2135   0.236E-01    0.397E+00
RMM:  20    -0.110203101403E+04   -0.34621E-02   -0.28746E-02  2078   0.338E-01    0.402E+00
RMM:  21    -0.110199518002E+04    0.35834E-01   -0.28719E-02  2130   0.339E-01    0.318E+00
RMM:  22    -0.110197098302E+04    0.24197E-01   -0.20582E-02  2162   0.286E-01    0.284E+00
RMM:  23    -0.110195196954E+04    0.19013E-01   -0.14247E-02  2203   0.233E-01    0.295E+00
RMM:  24    -0.110193813999E+04    0.13830E-01   -0.65529E-03  2110   0.171E-01    0.284E+00
RMM:  25    -0.110193348704E+04    0.46529E-02   -0.27144E-03  2246   0.920E-02    0.244E+00
RMM:  26    -0.110191467380E+04    0.18813E-01   -0.13005E-02  2048   0.225E-01    0.308E+00
RMM:  27    -0.110187647873E+04    0.38195E-01   -0.21413E-02  2129   0.304E-01    0.373E+00
RMM:  28    -0.110182369675E+04    0.52782E-01   -0.97876E-03  2160   0.186E-01    0.308E+00
RMM:  29    -0.110181416210E+04    0.95347E-02   -0.27733E-03  2161   0.945E-02    0.267E+00
RMM:  30    -0.110180334591E+04    0.10816E-01   -0.62438E-03  2040   0.150E-01    0.234E+00
RMM:  31    -0.110178942321E+04    0.13923E-01   -0.53763E-03  2031   0.156E-01    0.189E+00
RMM:  32    -0.110181264227E+04   -0.23219E-01   -0.41406E-03  2104   0.120E-01    0.168E+00
RMM:  33    -0.110185740654E+04   -0.44764E-01   -0.52867E-03  2100   0.117E-01    0.933E-01
RMM:  34    -0.110188456085E+04   -0.27154E-01   -0.30394E-03  2249   0.847E-02    0.988E-01
RMM:  35    -0.110189661182E+04   -0.12051E-01   -0.13160E-03  2187   0.647E-02    0.709E-01
RMM:  36    -0.110190896563E+04   -0.12354E-01   -0.83325E-04  2147   0.503E-02    0.720E-01
RMM:  37    -0.110193046252E+04   -0.21497E-01   -0.86509E-04  2121   0.458E-02    0.667E-01
RMM:  38    -0.110195793028E+04   -0.27468E-01   -0.11835E-03  2210   0.461E-02    0.456E-01
RMM:  39    -0.110199589845E+04   -0.37968E-01   -0.18330E-03  2231   0.491E-02    0.324E-01
RMM:  40    -0.110201228292E+04   -0.16384E-01   -0.69275E-04  2208   0.383E-02    0.410E-01
RMM:  41    -0.110202459278E+04   -0.12310E-01   -0.41874E-04  2245   0.243E-02    0.366E-01
RMM:  42    -0.110204380009E+04   -0.19207E-01   -0.57705E-04  2216   0.244E-02    0.144E-01
RMM:  43    -0.110205931343E+04   -0.15513E-01   -0.59608E-04  2240   0.238E-02    0.115E-01
RMM:  44    -0.110207145206E+04   -0.12139E-01   -0.52887E-04  2210   0.229E-02    0.968E-02
RMM:  45    -0.110208029622E+04   -0.88442E-02   -0.43031E-04  2215   0.179E-02    0.809E-02
RMM:  46    -0.110208738629E+04   -0.70901E-02   -0.38344E-04  2166   0.170E-02    0.948E-02
RMM:  47    -0.110209169178E+04   -0.43055E-02   -0.26643E-04  2174   0.133E-02    0.511E-02
RMM:  48    -0.110209388755E+04   -0.21958E-02   -0.13344E-04  2030   0.974E-03    0.277E-02
RMM:  49    -0.110209540362E+04   -0.15161E-02   -0.95991E-05  1971   0.820E-03    0.363E-02
RMM:  50    -0.110209616413E+04   -0.76051E-03   -0.42946E-05  1805   0.597E-03    0.267E-02
RMM:  51    -0.110209657664E+04   -0.41252E-03   -0.23538E-05  1614   0.421E-03    0.130E-02
RMM:  52    -0.110209673617E+04   -0.15953E-03   -0.69479E-06  1482   0.392E-03    0.109E-02
RMM:  53    -0.110209698599E+04   -0.24982E-03   -0.12824E-05  1448   0.310E-03    0.867E-03
RMM:  54    -0.110209708564E+04   -0.99652E-04   -0.50062E-06  1307   0.261E-03    0.640E-03
RMM:  55    -0.110209719228E+04   -0.10664E-03   -0.58358E-06  1335   0.208E-03    0.471E-03
RMM:  56    -0.110209724989E+04   -0.57609E-04   -0.29427E-06  1245   0.206E-03    0.581E-03
RMM:  57    -0.110209728014E+04   -0.30245E-04   -0.22611E-06  1192   0.160E-03    0.292E-03
RMM:  58    -0.110209729079E+04   -0.10652E-04   -0.82298E-07  1017   0.142E-03    0.134E-03
RMM:  59    -0.110209730217E+04   -0.11379E-04   -0.77244E-07  1023   0.102E-03    0.104E-03
RMM:  60    -0.110209731027E+04   -0.81042E-05   -0.52852E-07   964   0.104E-03    0.990E-04
RMM:  61    -0.110209731533E+04   -0.50562E-05   -0.44557E-07   925   0.809E-04    0.806E-04
RMM:  62    -0.110209731755E+04   -0.22221E-05   -0.27930E-07   872   0.776E-04    0.883E-04
RMM:  63    -0.110209732055E+04   -0.30038E-05   -0.24824E-07   824   0.614E-04    0.641E-04
RMM:  64    -0.110209732274E+04   -0.21841E-05   -0.19492E-07   840   0.648E-04    0.561E-04
RMM:  65    -0.110209732444E+04   -0.16978E-05   -0.17163E-07   809   0.537E-04    0.502E-04
RMM:  66    -0.110209732533E+04   -0.89552E-06   -0.12020E-07   776   0.540E-04
   3 F= -.11091032E+04 E0= -.11090823E+04  d E =-.794277E+01  mag=    20.1464
       N       E                     dE             d eps       ncg     rms          rms(c)
DAV:   1    -0.110243970515E+04   -0.34238E+00   -0.93696E+00  2148   0.938E+00    0.412E+00
RMM:   2    -0.110251177711E+04   -0.72072E-01   -0.10738E+00  1909   0.280E+00    0.876E+00
RMM:   3    -0.110265935426E+04   -0.14758E+00   -0.41709E-01  2136   0.139E+00    0.188E+01
RMM:   4    -0.110232113605E+04    0.33822E+00   -0.24435E-01  2181   0.108E+00    0.704E+00
RMM:   5    -0.110235941778E+04   -0.38282E-01   -0.16911E-01  2057   0.929E-01    0.742E+00
RMM:   6    -0.110236340508E+04   -0.39873E-02   -0.92291E-02  2144   0.609E-01    0.103E+01
RMM:   7    -0.110224739606E+04    0.11601E+00   -0.60326E-02  2153   0.535E-01    0.459E+00
RMM:   8    -0.110224877942E+04   -0.13834E-02   -0.43975E-02  2084   0.476E-01    0.340E+00
RMM:   9    -0.110226255627E+04   -0.13777E-01   -0.29514E-02  2119   0.369E-01    0.475E+00
RMM:  10    -0.110225477002E+04    0.77862E-02   -0.24587E-02  2082   0.354E-01    0.363E+00
RMM:  11    -0.110225561208E+04   -0.84205E-03   -0.10283E-02  2063   0.231E-01    0.298E+00
RMM:  12    -0.110225307922E+04    0.25329E-02   -0.36848E-03  2195   0.121E-01    0.197E+00
RMM:  13    -0.110225731295E+04   -0.42337E-02   -0.60797E-03  2052   0.151E-01    0.206E+00
RMM:  14    -0.110225609751E+04    0.12154E-02   -0.56409E-03  2079   0.157E-01    0.168E+00
RMM:  15    -0.110225508138E+04    0.10161E-02   -0.33953E-03  2078   0.133E-01    0.152E+00
RMM:  16    -0.110225401041E+04    0.10710E-02   -0.17669E-03  2084   0.882E-02    0.133E+00
RMM:  17    -0.110225367576E+04    0.33465E-03   -0.25329E-03  2050   0.107E-01    0.128E+00
RMM:  18    -0.110225166055E+04    0.20152E-02   -0.33779E-03  2095   0.125E-01    0.994E-01
RMM:  19    -0.110225239653E+04   -0.73598E-03   -0.19579E-03  2117   0.990E-02    0.938E-01
RMM:  20    -0.110225306739E+04   -0.67086E-03   -0.10837E-03  2006   0.747E-02    0.930E-01
RMM:  21    -0.110225283384E+04    0.23355E-03   -0.34685E-04  2018   0.380E-02    0.102E+00
RMM:  22    -0.110225239229E+04    0.44155E-03   -0.16357E-04  1919   0.259E-02    0.857E-01
RMM:  23    -0.110225252616E+04   -0.13387E-03   -0.55476E-04  1928   0.469E-02    0.589E-01
RMM:  24    -0.110225271012E+04   -0.18396E-03   -0.75267E-04  1978   0.581E-02    0.582E-01
RMM:  25    -0.110225255055E+04    0.15957E-03   -0.47610E-04  2066   0.473E-02    0.385E-01
RMM:  26    -0.110225293732E+04   -0.38677E-03   -0.25728E-04  2115   0.347E-02    0.245E-01
RMM:  27    -0.110225331243E+04   -0.37511E-03   -0.12021E-04  2109   0.216E-02    0.257E-01
RMM:  28    -0.110225360608E+04   -0.29364E-03   -0.66751E-05  1874   0.151E-02    0.168E-01
RMM:  29    -0.110225389385E+04   -0.28777E-03   -0.44858E-05  1855   0.115E-02    0.650E-02
RMM:  30    -0.110225410840E+04   -0.21455E-03   -0.29989E-05  1735   0.107E-02    0.360E-02
RMM:  31    -0.110225424595E+04   -0.13754E-03   -0.15565E-05  1670   0.614E-03    0.386E-02
RMM:  32    -0.110225434348E+04   -0.97537E-04   -0.77282E-06  1506   0.494E-03    0.290E-02
RMM:  33    -0.110225442948E+04   -0.85999E-04   -0.66522E-06  1509   0.416E-03    0.238E-02
RMM:  34    -0.110225449384E+04   -0.64359E-04   -0.37898E-06  1362   0.325E-03    0.123E-02
RMM:  35    -0.110225454608E+04   -0.52236E-04   -0.28894E-06  1290   0.252E-03    0.211E-02
RMM:  36    -0.110225458195E+04   -0.35874E-04   -0.21230E-06  1227   0.233E-03    0.134E-02
RMM:  37    -0.110225461527E+04   -0.33318E-04   -0.19702E-06  1218   0.203E-03    0.415E-03
RMM:  38    -0.110225464935E+04   -0.34077E-04   -0.20957E-06  1244   0.188E-03    0.297E-03
RMM:  39    -0.110225467333E+04   -0.23980E-04   -0.16415E-06  1192   0.165E-03    0.363E-03
RMM:  40    -0.110225469683E+04   -0.23499E-04   -0.16823E-06  1150   0.160E-03    0.339E-03
RMM:  41    -0.110225471480E+04   -0.17975E-04   -0.15544E-06  1131   0.152E-03    0.399E-03
RMM:  42    -0.110225472750E+04   -0.12697E-04   -0.12736E-06  1087   0.140E-03    0.199E-03
RMM:  43    -0.110225473750E+04   -0.10007E-04   -0.10779E-06  1041   0.131E-03    0.158E-03
RMM:  44    -0.110225474384E+04   -0.63384E-05   -0.85076E-07  1032   0.121E-03    0.108E-03
RMM:  45    -0.110225474821E+04   -0.43691E-05   -0.70064E-07   981   0.108E-03    0.664E-04
RMM:  46    -0.110225475044E+04   -0.22324E-05   -0.50848E-07   925   0.963E-04    0.113E-03
RMM:  47    -0.110225475134E+04   -0.89852E-06   -0.32734E-07   870   0.795E-04
   4 F= -.11092934E+04 E0= -.11092730E+04  d E =-.813296E+01  mag=    20.1480
       N       E                     dE             d eps       ncg     rms          rms(c)
DAV:   1    -0.110252901503E+04   -0.27426E+00   -0.10861E+01  2160   0.101E+01    0.444E+00
RMM:   2    -0.110260638281E+04   -0.77368E-01   -0.12477E+00  1909   0.302E+00    0.912E+00
RMM:   3    -0.110275297456E+04   -0.14659E+00   -0.47837E-01  2144   0.150E+00    0.193E+01
RMM:   4    -0.110239558525E+04    0.35739E+00   -0.27280E-01  2191   0.113E+00    0.718E+00
RMM:   5    -0.110243352911E+04   -0.37944E-01   -0.19021E-01  2053   0.978E-01    0.772E+00
RMM:   6    -0.110242796418E+04    0.55649E-02   -0.10404E-01  2143   0.654E-01    0.102E+01
RMM:   7    -0.110231283165E+04    0.11513E+00   -0.62666E-02  2165   0.542E-01    0.476E+00
RMM:   8    -0.110231252520E+04    0.30646E-03   -0.45842E-02  2083   0.479E-01    0.401E+00
RMM:   9    -0.110232066046E+04   -0.81353E-02   -0.31138E-02  2128   0.377E-01    0.478E+00
RMM:  10    -0.110231505815E+04    0.56023E-02   -0.29138E-02  2079   0.386E-01    0.372E+00
RMM:  11    -0.110231526510E+04   -0.20695E-03   -0.11227E-02  2078   0.241E-01    0.280E+00
RMM:  12    -0.110231437765E+04    0.88745E-03   -0.46913E-03  2185   0.137E-01    0.186E+00
RMM:  13    -0.110231717745E+04   -0.27998E-02   -0.71774E-03  2075   0.166E-01    0.190E+00
RMM:  14    -0.110231556268E+04    0.16148E-02   -0.64035E-03  2080   0.167E-01    0.143E+00
RMM:  15    -0.110231456766E+04    0.99502E-03   -0.42203E-03  2082   0.147E-01    0.133E+00
RMM:  16    -0.110231432399E+04    0.24367E-03   -0.31869E-03  2083   0.115E-01    0.133E+00
RMM:  17    -0.110231260258E+04    0.17214E-02   -0.34317E-03  2094   0.126E-01    0.101E+00
RMM:  18    -0.110231179812E+04    0.80445E-03   -0.32419E-03  2116   0.122E-01    0.912E-01
RMM:  19    -0.110231191824E+04   -0.12012E-03   -0.14452E-03  2092   0.870E-02    0.696E-01
RMM:  20    -0.110231235785E+04   -0.43961E-03   -0.53382E-04  1988   0.521E-02    0.769E-01
RMM:  21    -0.110231200304E+04    0.35481E-03   -0.14148E-04  2042   0.212E-02    0.792E-01
RMM:  22    -0.110231172775E+04    0.27529E-03   -0.51055E-05  1816   0.162E-02    0.887E-01
RMM:  23    -0.110231166821E+04    0.59543E-04   -0.16459E-05  1602   0.770E-03    0.895E-01
RMM:  24    -0.110231192884E+04   -0.26064E-03   -0.63143E-04  1971   0.481E-02    0.671E-01
RMM:  25    -0.110231220754E+04   -0.27870E-03   -0.11903E-03  2023   0.760E-02    0.939E-01
RMM:  26    -0.110231157201E+04    0.63554E-03   -0.71418E-04  2026   0.558E-02    0.740E-01
RMM:  27    -0.110231166497E+04   -0.92965E-04   -0.22136E-04  2185   0.289E-02    0.213E-01
RMM:  28    -0.110231258293E+04   -0.91796E-03   -0.20850E-04  2048   0.336E-02    0.360E-01
RMM:  29    -0.110231300247E+04   -0.41954E-03   -0.11788E-04  1980   0.201E-02    0.267E-01
RMM:  30    -0.110231345035E+04   -0.44787E-03   -0.99570E-05  1989   0.155E-02    0.118E-01
RMM:  31    -0.110231374871E+04   -0.29837E-03   -0.64538E-05  1847   0.150E-02    0.961E-02
RMM:  32    -0.110231391904E+04   -0.17032E-03   -0.28378E-05  1815   0.909E-03    0.986E-02
RMM:  33    -0.110231401870E+04   -0.99664E-04   -0.11916E-05  1558   0.667E-03    0.965E-02
RMM:  34    -0.110231410856E+04   -0.89863E-04   -0.76807E-06  1523   0.476E-03    0.723E-02
RMM:  35    -0.110231420295E+04   -0.94384E-04   -0.52645E-06  1454   0.347E-03    0.286E-02
RMM:  36    -0.110231429906E+04   -0.96106E-04   -0.59374E-06  1505   0.354E-03    0.961E-03
RMM:  37    -0.110231435464E+04   -0.55583E-04   -0.35756E-06  1358   0.283E-03    0.699E-03
RMM:  38    -0.110231438384E+04   -0.29197E-04   -0.17830E-06  1200   0.228E-03    0.128E-02
RMM:  39    -0.110231442103E+04   -0.37194E-04   -0.21251E-06  1232   0.199E-03    0.135E-02
RMM:  40    -0.110231445389E+04   -0.32862E-04   -0.20822E-06  1235   0.185E-03    0.396E-03
RMM:  41    -0.110231448088E+04   -0.26989E-04   -0.19556E-06  1221   0.173E-03    0.271E-03
RMM:  42    -0.110231450418E+04   -0.23297E-04   -0.20033E-06  1186   0.164E-03    0.129E-03
RMM:  43    -0.110231452406E+04   -0.19887E-04   -0.19134E-06  1188   0.160E-03    0.216E-03
RMM:  44    -0.110231453602E+04   -0.11952E-04   -0.14594E-06  1084   0.149E-03    0.106E-03
RMM:  45    -0.110231454209E+04   -0.60784E-05   -0.94905E-07  1048   0.127E-03    0.130E-03
RMM:  46    -0.110231454739E+04   -0.52925E-05   -0.74288E-07   989   0.112E-03    0.940E-04
RMM:  47    -0.110231454951E+04   -0.21179E-05   -0.47987E-07   921   0.987E-04    0.762E-04
RMM:  48    -0.110231455112E+04   -0.16117E-05   -0.35373E-07   904   0.788E-04    0.462E-04
RMM:  49    -0.110231455223E+04   -0.11117E-05   -0.24226E-07   865   0.721E-04    0.250E-04
RMM:  50    -0.110231455279E+04   -0.56496E-06   -0.16270E-07   801   0.574E-04
   5 F= -.11093886E+04 E0= -.11093686E+04  d E =-.822814E+01  mag=    20.1504
       N       E                     dE             d eps       ncg     rms          rms(c)
DAV:   1    -0.110232516818E+04   -0.10616E-01   -0.70791E-01  2148   0.259E+00    0.113E+00
RMM:   2    -0.110233994412E+04   -0.14776E-01   -0.78267E-02  1907   0.755E-01    0.440E+00
RMM:   3    -0.110233713072E+04    0.28134E-02   -0.31619E-02  2170   0.353E-01    0.602E+00
RMM:   4    -0.110231504065E+04    0.22090E-01   -0.35135E-02  2081   0.436E-01    0.293E+00
RMM:   5    -0.110232068653E+04   -0.56459E-02   -0.16814E-02  2057   0.301E-01    0.278E+00
RMM:   6    -0.110231656705E+04    0.41195E-02   -0.11198E-02  2094   0.223E-01    0.259E+00
RMM:   7    -0.110231120370E+04    0.53633E-02   -0.64984E-03  2143   0.165E-01    0.152E+00
RMM:   8    -0.110231049591E+04    0.70779E-03   -0.30873E-03  2125   0.125E-01    0.710E-01
RMM:   9    -0.110231199191E+04   -0.14960E-02   -0.18816E-03  2068   0.102E-01    0.108E+00
RMM:  10    -0.110231252907E+04   -0.53717E-03   -0.92639E-04  2095   0.667E-02    0.147E+00
RMM:  11    -0.110231190244E+04    0.62664E-03   -0.41094E-04  2016   0.452E-02    0.156E+00
RMM:  12    -0.110231101866E+04    0.88378E-03   -0.14694E-04  2046   0.224E-02    0.138E+00
RMM:  13    -0.110231068011E+04    0.33855E-03   -0.16192E-04  1988   0.270E-02    0.107E+00
RMM:  14    -0.110231044615E+04    0.23396E-03   -0.22558E-04  2006   0.338E-02    0.647E-01
RMM:  15    -0.110231073601E+04   -0.28987E-03   -0.35045E-04  2015   0.438E-02    0.334E-01
RMM:  16    -0.110231106952E+04   -0.33351E-03   -0.40213E-04  2078   0.455E-02    0.236E-01
RMM:  17    -0.110231132793E+04   -0.25842E-03   -0.28357E-04  2080   0.395E-02    0.488E-01
RMM:  18    -0.110231134389E+04   -0.15957E-04   -0.17801E-04  1873   0.310E-02    0.676E-01
RMM:  19    -0.110231116541E+04    0.17848E-03   -0.86692E-05  1771   0.213E-02    0.766E-01
RMM:  20    -0.110231107681E+04    0.88602E-04   -0.52517E-05  1727   0.142E-02    0.763E-01
RMM:  21    -0.110231087144E+04    0.20537E-03   -0.45495E-05  1774   0.122E-02    0.577E-01
RMM:  22    -0.110231088733E+04   -0.15886E-04   -0.78257E-05  1898   0.191E-02    0.312E-01
RMM:  23    -0.110231103988E+04   -0.15255E-03   -0.59315E-05  1806   0.185E-02    0.161E-01
RMM:  24    -0.110231112813E+04   -0.88247E-04   -0.34028E-05  1700   0.145E-02    0.601E-02
RMM:  25    -0.110231118507E+04   -0.56940E-04   -0.13963E-05  1531   0.918E-03    0.246E-02
RMM:  26    -0.110231121119E+04   -0.26122E-04   -0.64412E-06  1393   0.628E-03    0.214E-02
RMM:  27    -0.110231122654E+04   -0.15354E-04   -0.24888E-06  1266   0.375E-03    0.117E-02
RMM:  28    -0.110231123666E+04   -0.10114E-04   -0.10653E-06  1158   0.265E-03    0.137E-02
RMM:  29    -0.110231124507E+04   -0.84124E-05   -0.74930E-07  1144   0.192E-03    0.114E-02
RMM:  30    -0.110231125811E+04   -0.13043E-04   -0.82122E-07  1150   0.180E-03    0.440E-03
RMM:  31    -0.110231127069E+04   -0.12580E-04   -0.70118E-07  1147   0.149E-03    0.478E-03
RMM:  32    -0.110231127803E+04   -0.73422E-05   -0.49476E-07  1128   0.118E-03    0.234E-03
RMM:  33    -0.110231128555E+04   -0.75161E-05   -0.48605E-07  1105   0.101E-03    0.342E-03
RMM:  34    -0.110231129295E+04   -0.73965E-05   -0.46522E-07  1057   0.978E-04    0.136E-03
RMM:  35    -0.110231129756E+04   -0.46085E-05   -0.39403E-07   966   0.888E-04    0.208E-03
RMM:  36    -0.110231130126E+04   -0.37017E-05   -0.32941E-07   922   0.784E-04    0.190E-03
RMM:  37    -0.110231130495E+04   -0.36939E-05   -0.31069E-07   926   0.743E-04    0.694E-04
RMM:  38    -0.110231130799E+04   -0.30369E-05   -0.27898E-07   919   0.716E-04    0.571E-04
RMM:  39    -0.110231131022E+04   -0.22337E-05   -0.24064E-07   899   0.661E-04    0.336E-04
RMM:  40    -0.110231131190E+04   -0.16833E-05   -0.19800E-07   845   0.610E-04    0.274E-04
RMM:  41    -0.110231131352E+04   -0.16142E-05   -0.18314E-07   847   0.574E-04    0.597E-04
RMM:  42    -0.110231131455E+04   -0.10275E-05   -0.14819E-07   826   0.553E-04    0.556E-04
RMM:  43    -0.110231131514E+04   -0.59123E-06   -0.11295E-07   770   0.488E-04
   6 F= -.11093944E+04 E0= -.11093745E+04  d E =-.823395E+01  mag=    20.1505
       N       E                     dE             d eps       ncg     rms          rms(c)
DAV:   1    -0.110221170463E+04    0.99610E-01   -0.78456E+01  1896   0.144E+01    0.414E+00
RMM:   2    -0.110296024490E+04   -0.74854E+00   -0.18219E+00  1999   0.294E+00    0.202E+01
RMM:   3    -0.110249595192E+04    0.46429E+00   -0.60286E-01  2260   0.155E+00    0.721E+00
RMM:   4    -0.110279491683E+04   -0.29896E+00   -0.36605E-01  2128   0.130E+00    0.134E+01
RMM:   5    -0.110248491171E+04    0.31001E+00   -0.15901E-01  2156   0.841E-01    0.572E+00
RMM:   6    -0.110247731834E+04    0.75934E-02   -0.99493E-02  2054   0.684E-01    0.622E+00
RMM:   7    -0.110244611376E+04    0.31205E-01   -0.40838E-02  2170   0.393E-01    0.400E+00
RMM:   8    -0.110243813662E+04    0.79771E-02   -0.36966E-02  2098   0.420E-01    0.247E+00
RMM:   9    -0.110244857772E+04   -0.10441E-01   -0.20224E-02  2139   0.289E-01    0.263E+00
RMM:  10    -0.110244764324E+04    0.93448E-03   -0.10585E-02  2094   0.222E-01    0.197E+00
RMM:  11    -0.110244743713E+04    0.20612E-03   -0.59899E-03  2096   0.163E-01    0.144E+00
RMM:  12    -0.110245443849E+04   -0.70014E-02   -0.98063E-03  2074   0.207E-01    0.191E+00
RMM:  13    -0.110245180652E+04    0.26320E-02   -0.83157E-03  2179   0.173E-01    0.133E+00
RMM:  14    -0.110245326436E+04   -0.14578E-02   -0.60137E-03  2094   0.163E-01    0.189E+00
RMM:  15    -0.110245109171E+04    0.21726E-02   -0.43252E-03  2089   0.151E-01    0.117E+00
RMM:  16    -0.110245050262E+04    0.58909E-03   -0.24135E-03  2099   0.115E-01    0.109E+00
RMM:  17    -0.110244939541E+04    0.11072E-02   -0.11936E-03  2078   0.749E-02    0.840E-01
RMM:  18    -0.110244839194E+04    0.10035E-02   -0.14714E-03  2122   0.815E-02    0.547E-01
RMM:  19    -0.110245006215E+04   -0.16702E-02   -0.93305E-04  2054   0.692E-02    0.776E-01
RMM:  20    -0.110245062492E+04   -0.56277E-03   -0.55444E-04  2048   0.515E-02    0.709E-01
RMM:  21    -0.110245095356E+04   -0.32864E-03   -0.34354E-04  2121   0.363E-02    0.520E-01
RMM:  22    -0.110245152443E+04   -0.57087E-03   -0.23025E-04  2061   0.296E-02    0.250E-01
RMM:  23    -0.110245194799E+04   -0.42356E-03   -0.95541E-05  1931   0.186E-02    0.226E-01
RMM:  24    -0.110245205408E+04   -0.10609E-03   -0.56354E-05  1741   0.160E-02    0.267E-01
RMM:  25    -0.110245201083E+04    0.43253E-04   -0.40359E-05  1730   0.132E-02    0.150E-01
RMM:  26    -0.110245264810E+04   -0.63727E-03   -0.11315E-04  1868   0.204E-02    0.257E-01
RMM:  27    -0.110245300001E+04   -0.35191E-03   -0.74502E-05  1842   0.173E-02    0.197E-01
RMM:  28    -0.110245322017E+04   -0.22016E-03   -0.36989E-05  1835   0.104E-02    0.114E-01
RMM:  29    -0.110245345259E+04   -0.23242E-03   -0.19999E-05  1691   0.795E-03    0.653E-02
RMM:  30    -0.110245363288E+04   -0.18029E-03   -0.12527E-05  1573   0.598E-03    0.259E-02
RMM:  31    -0.110245375721E+04   -0.12433E-03   -0.67817E-06  1421   0.528E-03    0.278E-02
RMM:  32    -0.110245386595E+04   -0.10874E-03   -0.41906E-06  1354   0.351E-03    0.131E-02
RMM:  33    -0.110245395502E+04   -0.89072E-04   -0.22074E-06  1238   0.267E-03    0.111E-02
RMM:  34    -0.110245403672E+04   -0.81700E-04   -0.20996E-06  1216   0.230E-03    0.660E-03
RMM:  35    -0.110245410222E+04   -0.65497E-04   -0.14695E-06  1145   0.197E-03    0.119E-02
RMM:  36    -0.110245414744E+04   -0.45222E-04   -0.11244E-06  1101   0.159E-03    0.425E-03
RMM:  37    -0.110245420566E+04   -0.58219E-04   -0.13585E-06  1118   0.151E-03    0.295E-03
RMM:  38    -0.110245424892E+04   -0.43263E-04   -0.12330E-06  1096   0.142E-03    0.224E-03
RMM:  39    -0.110245428181E+04   -0.32891E-04   -0.10574E-06  1046   0.132E-03    0.333E-03
RMM:  40    -0.110245430959E+04   -0.27778E-04   -0.99790E-07  1033   0.127E-03    0.126E-03
RMM:  41    -0.110245432824E+04   -0.18655E-04   -0.86114E-07  1004   0.120E-03    0.199E-03
RMM:  42    -0.110245434306E+04   -0.14811E-04   -0.77922E-07   988   0.111E-03    0.162E-03
RMM:  43    -0.110245435425E+04   -0.11193E-04   -0.70202E-07   992   0.107E-03    0.449E-04
RMM:  44    -0.110245436229E+04   -0.80423E-05   -0.63244E-07   967   0.989E-04    0.350E-04
RMM:  45    -0.110245436674E+04   -0.44500E-05   -0.50606E-07   942   0.941E-04    0.453E-04
RMM:  46    -0.110245436927E+04   -0.25295E-05   -0.41104E-07   903   0.821E-04    0.201E-04
RMM:  47    -0.110245437032E+04   -0.10490E-05   -0.29507E-07   860   0.756E-04    0.204E-04
RMM:  48    -0.110245437103E+04   -0.70753E-06   -0.22853E-07   829   0.633E-04
   7 F= -.11095294E+04 E0= -.11095091E+04  d E =-.134973E+00  mag=    20.1926
       N       E                     dE             d eps       ncg     rms          rms(c)
DAV:   1    -0.110245337581E+04    0.99450E-03   -0.17553E+00  2028   0.214E+00    0.621E-01
RMM:   2    -0.110247004895E+04   -0.16673E-01   -0.32233E-02  2026   0.401E-01    0.345E+00
RMM:   3    -0.110245690428E+04    0.13145E-01   -0.13106E-02  2241   0.230E-01    0.207E+00
RMM:   4    -0.110246766822E+04   -0.10764E-01   -0.12395E-02  2115   0.250E-01    0.306E+00
RMM:   5    -0.110245653658E+04    0.11132E-01   -0.66000E-03  2074   0.174E-01    0.127E+00
RMM:   6    -0.110245770465E+04   -0.11681E-02   -0.42344E-03  2012   0.142E-01    0.785E-01
RMM:   7    -0.110245733784E+04    0.36681E-03   -0.10908E-03  2082   0.684E-02    0.358E-01
RMM:   8    -0.110245754708E+04   -0.20925E-03   -0.48444E-04  2181   0.481E-02    0.378E-01
RMM:   9    -0.110245749805E+04    0.49034E-04   -0.32926E-04  2052   0.396E-02    0.385E-01
RMM:  10    -0.110245762957E+04   -0.13152E-03   -0.25065E-04  2120   0.329E-02    0.375E-01
RMM:  11    -0.110245754759E+04    0.81978E-04   -0.16003E-04  2017   0.274E-02    0.251E-01
RMM:  12    -0.110245768815E+04   -0.14056E-03   -0.13020E-04  1919   0.239E-02    0.201E-01
RMM:  13    -0.110245775529E+04   -0.67139E-04   -0.11655E-04  1853   0.216E-02    0.161E-01
RMM:  14    -0.110245782738E+04   -0.72090E-04   -0.96968E-05  1833   0.202E-02    0.170E-01
RMM:  15    -0.110245780492E+04    0.22451E-04   -0.42278E-05  1684   0.149E-02    0.111E-01
RMM:  16    -0.110245781845E+04   -0.13523E-04   -0.19749E-05  1501   0.101E-02    0.751E-02
RMM:  17    -0.110245782936E+04   -0.10911E-04   -0.99808E-06  1414   0.747E-03    0.308E-02
RMM:  18    -0.110245785112E+04   -0.21757E-04   -0.71683E-06  1377   0.602E-03    0.303E-02
RMM:  19    -0.110245786406E+04   -0.12946E-04   -0.54707E-06  1350   0.560E-03    0.225E-02
RMM:  20    -0.110245787698E+04   -0.12919E-04   -0.26469E-06  1286   0.403E-03    0.223E-02
RMM:  21    -0.110245788029E+04   -0.33125E-05   -0.97464E-07  1173   0.253E-03    0.211E-02
RMM:  22    -0.110245788066E+04   -0.37060E-06   -0.41436E-07  1102   0.153E-03
   8 F= -.11095317E+04 E0= -.11095113E+04  d E =-.137306E+00  mag=    20.1979
       N       E                     dE             d eps       ncg     rms          rms(c)
DAV:   1    -0.110241231267E+04    0.45568E-01   -0.31130E+01  1908   0.909E+00    0.253E+00
RMM:   2    -0.110272643465E+04   -0.31412E+00   -0.61676E-01  2073   0.172E+00    0.156E+01
RMM:   3    -0.110247453449E+04    0.25190E+00   -0.20507E-01  2286   0.910E-01    0.542E+00
RMM:   4    -0.110263615488E+04   -0.16162E+00   -0.16788E-01  2121   0.904E-01    0.831E+00
RMM:   5    -0.110248428507E+04    0.15187E+00   -0.60154E-02  2172   0.539E-01    0.306E+00
RMM:   6    -0.110250757448E+04   -0.23289E-01   -0.43206E-02  2052   0.449E-01    0.410E+00
RMM:   7    -0.110250266860E+04    0.49059E-02   -0.24250E-02  2148   0.292E-01    0.313E+00
RMM:   8    -0.110249397769E+04    0.86909E-02   -0.17985E-02  2065   0.281E-01    0.180E+00
RMM:   9    -0.110250243062E+04   -0.84529E-02   -0.10738E-02  2062   0.214E-01    0.295E+00
RMM:  10    -0.110249937795E+04    0.30527E-02   -0.42208E-03  2014   0.148E-01    0.242E+00
RMM:  11    -0.110249808473E+04    0.12932E-02   -0.29321E-03  2129   0.110E-01    0.195E+00
RMM:  12    -0.110249880358E+04   -0.71885E-03   -0.35889E-03  2095   0.125E-01    0.122E+00
RMM:  13    -0.110250168445E+04   -0.28809E-02   -0.50249E-03  2100   0.148E-01    0.149E+00
RMM:  14    -0.110250166162E+04    0.22834E-04   -0.34955E-03  2094   0.124E-01    0.114E+00
RMM:  15    -0.110250135256E+04    0.30906E-03   -0.22579E-03  2152   0.898E-02    0.924E-01
RMM:  16    -0.110250148529E+04   -0.13274E-03   -0.15327E-03  2095   0.806E-02    0.484E-01
RMM:  17    -0.110250248625E+04   -0.10010E-02   -0.92388E-04  2086   0.643E-02    0.326E-01
RMM:  18    -0.110250301385E+04   -0.52760E-03   -0.48661E-04  2073   0.487E-02    0.257E-01
RMM:  19    -0.110250326016E+04   -0.24631E-03   -0.22773E-04  2118   0.291E-02    0.216E-01
RMM:  20    -0.110250336564E+04   -0.10549E-03   -0.10156E-04  1913   0.214E-02    0.164E-01
RMM:  21    -0.110250353615E+04   -0.17051E-03   -0.38650E-05  1774   0.127E-02    0.239E-01
RMM:  22    -0.110250362146E+04   -0.85311E-04   -0.30991E-05  1716   0.121E-02    0.236E-01
RMM:  23    -0.110250371805E+04   -0.96588E-04   -0.44601E-05  1762   0.129E-02    0.139E-01
RMM:  24    -0.110250383370E+04   -0.11565E-03   -0.37942E-05  1706   0.137E-02    0.761E-02
RMM:  25    -0.110250391748E+04   -0.83781E-04   -0.17380E-05  1537   0.916E-03    0.106E-01
RMM:  26    -0.110250394727E+04   -0.29786E-04   -0.84394E-06  1451   0.562E-03    0.694E-02
RMM:  27    -0.110250403577E+04   -0.88506E-04   -0.77843E-06  1491   0.496E-03    0.252E-02
RMM:  28    -0.110250412945E+04   -0.93678E-04   -0.49228E-06  1399   0.424E-03    0.173E-02
RMM:  29    -0.110250417941E+04   -0.49958E-04   -0.25802E-06  1253   0.305E-03    0.177E-02
RMM:  30    -0.110250423017E+04   -0.50761E-04   -0.18805E-06  1192   0.254E-03    0.157E-02
RMM:  31    -0.110250428301E+04   -0.52835E-04   -0.16635E-06  1169   0.213E-03    0.503E-03
RMM:  32    -0.110250432371E+04   -0.40708E-04   -0.12129E-06  1116   0.182E-03    0.534E-03
RMM:  33    -0.110250435541E+04   -0.31695E-04   -0.97303E-07  1086   0.143E-03    0.340E-03
RMM:  34    -0.110250438544E+04   -0.30034E-04   -0.87400E-07  1051   0.131E-03    0.243E-03
RMM:  35    -0.110250440575E+04   -0.20311E-04   -0.73674E-07  1028   0.121E-03    0.186E-03
RMM:  36    -0.110250442197E+04   -0.16218E-04   -0.63422E-07   993   0.108E-03    0.160E-03
RMM:  37    -0.110250444056E+04   -0.18588E-04   -0.69234E-07  1022   0.104E-03    0.954E-04
RMM:  38    -0.110250445330E+04   -0.12737E-04   -0.60496E-07   985   0.101E-03    0.982E-04
RMM:  39    -0.110250446282E+04   -0.95260E-05   -0.54360E-07   973   0.938E-04    0.780E-04
RMM:  40    -0.110250447137E+04   -0.85472E-05   -0.56046E-07   991   0.931E-04    0.749E-04
RMM:  41    -0.110250447632E+04   -0.49469E-05   -0.48147E-07   960   0.896E-04    0.384E-04
RMM:  42    -0.110250447858E+04   -0.22633E-05   -0.37821E-07   917   0.815E-04    0.334E-04
RMM:  43    -0.110250447963E+04   -0.10496E-05   -0.28039E-07   875   0.714E-04    0.235E-04
RMM:  44    -0.110250448010E+04   -0.47163E-06   -0.19867E-07   821   0.623E-04
   9 F= -.11095840E+04 E0= -.11095628E+04  d E =-.523587E-01  mag=    20.2118
       N       E                     dE             d eps       ncg     rms          rms(c)
DAV:   1    -0.110250504906E+04   -0.56943E-03   -0.64880E-01  2040   0.131E+00    0.362E-01
RMM:   2    -0.110251131812E+04   -0.62691E-02   -0.11240E-02  2105   0.238E-01    0.230E+00
RMM:   3    -0.110250457155E+04    0.67466E-02   -0.45096E-03  2235   0.139E-01    0.783E-01
RMM:   4    -0.110250873303E+04   -0.41615E-02   -0.36105E-03  2122   0.131E-01    0.984E-01
RMM:   5    -0.110250672018E+04    0.20129E-02   -0.12270E-03  2055   0.704E-02    0.402E-01
RMM:   6    -0.110250679300E+04   -0.72821E-04   -0.35434E-04  2032   0.373E-02    0.377E-01
RMM:   7    -0.110250689436E+04   -0.10137E-03   -0.28685E-04  2015   0.354E-02    0.361E-01
RMM:   8    -0.110250673963E+04    0.15473E-03   -0.23637E-04  2050   0.369E-02    0.185E-01
RMM:   9    -0.110250679645E+04   -0.56816E-04   -0.15808E-04  1960   0.263E-02    0.195E-01
RMM:  10    -0.110250675443E+04    0.42017E-04   -0.86426E-05  1866   0.202E-02    0.127E-01
RMM:  11    -0.110250679109E+04   -0.36658E-04   -0.47426E-05  1694   0.157E-02    0.137E-01
RMM:  12    -0.110250677076E+04    0.20328E-04   -0.25410E-05  1510   0.108E-02    0.980E-02
RMM:  13    -0.110250677158E+04   -0.81861E-06   -0.15401E-05  1458   0.885E-03    0.634E-02
RMM:  14    -0.110250678402E+04   -0.12438E-04   -0.75193E-06  1395   0.680E-03    0.456E-02
RMM:  15    -0.110250679242E+04   -0.84045E-05   -0.54767E-06  1314   0.514E-03    0.444E-02
RMM:  16    -0.110250679805E+04   -0.56290E-05   -0.25606E-06  1250   0.390E-03    0.181E-02
RMM:  17    -0.110250680186E+04   -0.38088E-05   -0.93196E-07  1158   0.254E-03    0.158E-02
RMM:  18    -0.110250680542E+04   -0.35631E-05   -0.45074E-07  1070   0.166E-03    0.161E-02
RMM:  19    -0.110250680970E+04   -0.42796E-05   -0.47388E-07  1033   0.159E-03    0.160E-02
RMM:  20    -0.110250681662E+04   -0.69213E-05   -0.66414E-07  1091   0.190E-03    0.120E-02
RMM:  21    -0.110250682484E+04   -0.82224E-05   -0.57217E-07  1085   0.176E-03    0.685E-03
RMM:  22    -0.110250682894E+04   -0.40954E-05   -0.30496E-07  1007   0.135E-03    0.674E-03
RMM:  23    -0.110250683087E+04   -0.19267E-05   -0.19471E-07   969   0.100E-03    0.610E-03
RMM:  24    -0.110250683330E+04   -0.24356E-05   -0.12789E-07   926   0.811E-04    0.356E-03
RMM:  25    -0.110250683874E+04   -0.54418E-05   -0.12792E-07   889   0.647E-04    0.285E-03
RMM:  26    -0.110250684542E+04   -0.66751E-05   -0.15720E-07   952   0.643E-04    0.166E-03
RMM:  27    -0.110250685060E+04   -0.51837E-05   -0.14506E-07   899   0.614E-04    0.196E-03
RMM:  28    -0.110250685425E+04   -0.36497E-05   -0.12830E-07   829   0.542E-04    0.148E-03
RMM:  29    -0.110250685811E+04   -0.38550E-05   -0.12994E-07   859   0.515E-04    0.118E-03
RMM:  30    -0.110250686193E+04   -0.38198E-05   -0.14379E-07   859   0.526E-04    0.888E-04
RMM:  31    -0.110250686435E+04   -0.24218E-05   -0.12931E-07   825   0.515E-04    0.435E-04
RMM:  32    -0.110250686666E+04   -0.23072E-05   -0.14227E-07   822   0.494E-04    0.551E-04
RMM:  33    -0.110250686858E+04   -0.19271E-05   -0.14465E-07   864   0.508E-04    0.331E-04
RMM:  34    -0.110250686978E+04   -0.11962E-05   -0.12266E-07   816   0.493E-04    0.443E-04
RMM:  35    -0.110250687036E+04   -0.58467E-06   -0.99190E-08   764   0.460E-04
  10 F= -.11095856E+04 E0= -.11095645E+04  d E =-.539152E-01  mag=    20.2098
       N       E                     dE             d eps       ncg     rms          rms(c)
DAV:   1    -0.110242928036E+04    0.77589E-01   -0.23089E+01  1932   0.860E+00    0.232E+00
RMM:   2    -0.110258762109E+04   -0.15834E+00   -0.54740E-01  2161   0.154E+00    0.994E+00
RMM:   3    -0.110250398806E+04    0.83633E-01   -0.13923E-01  2270   0.772E-01    0.547E+00
RMM:   4    -0.110260856553E+04   -0.10458E+00   -0.99883E-02  2174   0.688E-01    0.822E+00
RMM:   5    -0.110247489472E+04    0.13367E+00   -0.47145E-02  2170   0.473E-01    0.383E+00
RMM:   6    -0.110249538167E+04   -0.20487E-01   -0.35343E-02  2086   0.394E-01    0.444E+00
RMM:   7    -0.110249114496E+04    0.42367E-02   -0.23817E-02  2184   0.293E-01    0.358E+00
RMM:   8    -0.110248285314E+04    0.82918E-02   -0.23677E-02  2077   0.322E-01    0.349E+00
RMM:   9    -0.110249075780E+04   -0.79047E-02   -0.10717E-02  2084   0.206E-01    0.421E+00
RMM:  10    -0.110248299059E+04    0.77672E-02   -0.46395E-03  2019   0.149E-01    0.373E+00
RMM:  11    -0.110247999413E+04    0.29965E-02   -0.34829E-03  2125   0.115E-01    0.304E+00
RMM:  12    -0.110247908762E+04    0.90651E-03   -0.52128E-03  2113   0.143E-01    0.227E+00
RMM:  13    -0.110248158058E+04   -0.24930E-02   -0.74485E-03  2048   0.180E-01    0.189E+00
RMM:  14    -0.110247979149E+04    0.17891E-02   -0.58385E-03  2049   0.176E-01    0.112E+00
RMM:  15    -0.110248212465E+04   -0.23332E-02   -0.34965E-03  2043   0.133E-01    0.137E+00
RMM:  16    -0.110248129391E+04    0.83074E-03   -0.23570E-03  2091   0.999E-02    0.125E+00
RMM:  17    -0.110248065511E+04    0.63880E-03   -0.92733E-04  2059   0.678E-02    0.860E-01
RMM:  18    -0.110248103432E+04   -0.37921E-03   -0.56784E-04  2108   0.508E-02    0.538E-01
RMM:  19    -0.110248124555E+04   -0.21123E-03   -0.37304E-04  2044   0.436E-02    0.267E-01
RMM:  20    -0.110248168654E+04   -0.44099E-03   -0.19978E-04  2003   0.310E-02    0.261E-01
RMM:  21    -0.110248189365E+04   -0.20711E-03   -0.11152E-04  1946   0.224E-02    0.257E-01
RMM:  22    -0.110248204670E+04   -0.15304E-03   -0.49372E-05  1799   0.153E-02    0.125E-01
RMM:  23    -0.110248223382E+04   -0.18712E-03   -0.32140E-05  1751   0.122E-02    0.137E-01
RMM:  24    -0.110248230345E+04   -0.69631E-04   -0.30277E-05  1662   0.126E-02    0.161E-01
RMM:  25    -0.110248231945E+04   -0.16000E-04   -0.16327E-05  1548   0.847E-03    0.128E-01
RMM:  26    -0.110248243985E+04   -0.12041E-03   -0.14219E-05  1600   0.727E-03    0.304E-02
RMM:  27    -0.110248257860E+04   -0.13875E-03   -0.12109E-05  1549   0.717E-03    0.740E-02
RMM:  28    -0.110248264612E+04   -0.67517E-04   -0.73374E-06  1437   0.504E-03    0.428E-02
RMM:  29    -0.110248270139E+04   -0.55277E-04   -0.33118E-06  1291   0.330E-03    0.214E-02
RMM:  30    -0.110248275933E+04   -0.57937E-04   -0.27398E-06  1250   0.282E-03    0.152E-02
RMM:  31    -0.110248281367E+04   -0.54341E-04   -0.23613E-06  1241   0.238E-03    0.644E-03
RMM:  32    -0.110248285932E+04   -0.45650E-04   -0.20748E-06  1186   0.205E-03    0.561E-03
RMM:  33    -0.110248289093E+04   -0.31608E-04   -0.14451E-06  1126   0.172E-03    0.514E-03
RMM:  34    -0.110248292509E+04   -0.34160E-04   -0.16200E-06  1140   0.159E-03    0.269E-03
RMM:  35    -0.110248295438E+04   -0.29289E-04   -0.15118E-06  1105   0.154E-03    0.272E-03
RMM:  36    -0.110248298029E+04   -0.25909E-04   -0.16637E-06  1138   0.145E-03    0.259E-03
RMM:  37    -0.110248300331E+04   -0.23021E-04   -0.17240E-06  1147   0.146E-03    0.151E-03
RMM:  38    -0.110248301306E+04   -0.97552E-05   -0.10231E-06  1036   0.130E-03    0.942E-04
RMM:  39    -0.110248302065E+04   -0.75831E-05   -0.80390E-07  1016   0.113E-03    0.113E-03
RMM:  40    -0.110248302626E+04   -0.56175E-05   -0.66568E-07  1013   0.106E-03    0.998E-04
RMM:  41    -0.110248302951E+04   -0.32470E-05   -0.53145E-07   964   0.937E-04    0.590E-04
RMM:  42    -0.110248303108E+04   -0.15679E-05   -0.36353E-07   923   0.828E-04    0.645E-04
RMM:  43    -0.110248303180E+04   -0.72507E-06   -0.24820E-07   856   0.692E-04
  11 F= -.11095723E+04 E0= -.11095506E+04  d E =0.133219E-01  mag=    20.2251
       N       E                     dE             d eps       ncg     rms          rms(c)
DAV:   1    -0.110250519614E+04   -0.22165E-01   -0.73924E+00  1950   0.489E+00    0.131E+00
RMM:   2    -0.110255270543E+04   -0.47509E-01   -0.16924E-01  2158   0.871E-01    0.454E+00
RMM:   3    -0.110253396327E+04    0.18742E-01   -0.46547E-02  2264   0.449E-01    0.448E+00
RMM:   4    -0.110253379960E+04    0.16368E-03   -0.34025E-02  2152   0.393E-01    0.262E+00
RMM:   5    -0.110252257587E+04    0.11224E-01   -0.15013E-02  2114   0.277E-01    0.135E+00
RMM:   6    -0.110252707926E+04   -0.45034E-02   -0.70542E-03  2180   0.172E-01    0.203E+00
RMM:   7    -0.110252613191E+04    0.94735E-03   -0.71370E-03  2094   0.181E-01    0.214E+00
RMM:   8    -0.110252286427E+04    0.32676E-02   -0.64861E-03  2072   0.176E-01    0.128E+00
RMM:   9    -0.110252360278E+04   -0.73851E-03   -0.47376E-03  2055   0.147E-01    0.136E+00
RMM:  10    -0.110252190999E+04    0.16928E-02   -0.27873E-03  2080   0.120E-01    0.916E-01
RMM:  11    -0.110252211000E+04   -0.20002E-03   -0.15750E-03  2061   0.883E-02    0.742E-01
RMM:  12    -0.110252149320E+04    0.61681E-03   -0.82837E-04  2046   0.656E-02    0.358E-01
RMM:  13    -0.110252176529E+04   -0.27209E-03   -0.39413E-04  2030   0.441E-02    0.391E-01
RMM:  14    -0.110252165646E+04    0.10882E-03   -0.28266E-04  1991   0.357E-02    0.323E-01
RMM:  15    -0.110252161653E+04    0.39936E-04   -0.18232E-04  1978   0.278E-02    0.220E-01
RMM:  16    -0.110252160516E+04    0.11367E-04   -0.92399E-05  1870   0.224E-02    0.752E-02
RMM:  17    -0.110252166281E+04   -0.57648E-04   -0.35442E-05  1700   0.137E-02    0.747E-02
RMM:  18    -0.110252167280E+04   -0.99888E-05   -0.15900E-05  1475   0.929E-03    0.465E-02
RMM:  19    -0.110252169351E+04   -0.20712E-04   -0.64324E-06  1399   0.574E-03    0.581E-02
RMM:  20    -0.110252172348E+04   -0.29976E-04   -0.11317E-05  1453   0.718E-03    0.875E-02
RMM:  21    -0.110252175215E+04   -0.28664E-04   -0.11651E-05  1484   0.779E-03    0.741E-02
RMM:  22    -0.110252176911E+04   -0.16965E-04   -0.46020E-06  1363   0.488E-03    0.251E-02
RMM:  23    -0.110252179065E+04   -0.21538E-04   -0.46128E-06  1338   0.526E-03    0.462E-02
RMM:  24    -0.110252179652E+04   -0.58703E-05   -0.23362E-06  1240   0.373E-03    0.361E-02
RMM:  25    -0.110252181691E+04   -0.20384E-04   -0.11459E-06  1159   0.246E-03    0.113E-02
RMM:  26    -0.110252186553E+04   -0.48623E-04   -0.15514E-06  1168   0.239E-03    0.307E-02
RMM:  27    -0.110252189676E+04   -0.31234E-04   -0.11659E-06  1158   0.208E-03    0.181E-02
RMM:  28    -0.110252193111E+04   -0.34344E-04   -0.97364E-07  1118   0.172E-03    0.676E-03
RMM:  29    -0.110252197726E+04   -0.46154E-04   -0.13072E-06  1154   0.167E-03    0.466E-03
RMM:  30    -0.110252201446E+04   -0.37199E-04   -0.11491E-06  1105   0.147E-03    0.337E-03
RMM:  31    -0.110252204952E+04   -0.35057E-04   -0.13054E-06  1108   0.140E-03    0.373E-03
RMM:  32    -0.110252207501E+04   -0.25494E-04   -0.12579E-06  1103   0.141E-03    0.192E-03
RMM:  33    -0.110252209812E+04   -0.23115E-04   -0.13890E-06  1112   0.136E-03    0.227E-03
RMM:  34    -0.110252210890E+04   -0.10773E-04   -0.94594E-07  1039   0.131E-03    0.170E-03
RMM:  35    -0.110252211644E+04   -0.75467E-05   -0.77232E-07  1011   0.109E-03    0.978E-04
RMM:  36    -0.110252212277E+04   -0.63222E-05   -0.71581E-07  1014   0.108E-03    0.153E-03
RMM:  37    -0.110252212529E+04   -0.25270E-05   -0.52237E-07   971   0.964E-04    0.887E-04
RMM:  38    -0.110252212629E+04   -0.99903E-06   -0.36054E-07   884   0.823E-04
  12 F= -.11096054E+04 E0= -.11095841E+04  d E =-.198274E-01  mag=    20.2164
       N       E                     dE             d eps       ncg     rms          rms(c)
DAV:   1    -0.110253386950E+04   -0.11744E-01   -0.35754E+00  1938   0.405E+00    0.100E+00
RMM:   2    -0.110254532366E+04   -0.11454E-01   -0.99603E-02  2198   0.712E-01    0.323E+00
RMM:   3    -0.110255182526E+04   -0.65016E-02   -0.24744E-02  2213   0.338E-01    0.394E+00
RMM:   4    -0.110253746253E+04    0.14363E-01   -0.21618E-02  2206   0.326E-01    0.199E+00
RMM:   5    -0.110253523207E+04    0.22305E-02   -0.74683E-03  2165   0.184E-01    0.140E+00
RMM:   6    -0.110253523280E+04   -0.72540E-06   -0.34508E-03  2194   0.125E-01    0.748E-01
RMM:   7    -0.110253535939E+04   -0.12659E-03   -0.21102E-03  2124   0.104E-01    0.686E-01
RMM:   8    -0.110253624083E+04   -0.88144E-03   -0.14128E-03  2123   0.810E-02    0.995E-01
RMM:   9    -0.110253510132E+04    0.11395E-02   -0.11743E-03  2106   0.750E-02    0.693E-01
RMM:  10    -0.110253493811E+04    0.16322E-03   -0.83764E-04  2104   0.684E-02    0.467E-01
RMM:  11    -0.110253509207E+04   -0.15396E-03   -0.47447E-04  2141   0.460E-02    0.390E-01
RMM:  12    -0.110253514022E+04   -0.48148E-04   -0.37211E-04  2071   0.406E-02    0.270E-01
RMM:  13    -0.110253520457E+04   -0.64348E-04   -0.23389E-04  2026   0.335E-02    0.219E-01
RMM:  14    -0.110253524812E+04   -0.43552E-04   -0.14304E-04  1919   0.263E-02    0.195E-01
RMM:  15    -0.110253525655E+04   -0.84348E-05   -0.96356E-05  1816   0.202E-02    0.157E-01
RMM:  16    -0.110253529673E+04   -0.40172E-04   -0.48254E-05  1732   0.160E-02    0.515E-02
RMM:  17    -0.110253535017E+04   -0.53440E-04   -0.19456E-05  1528   0.100E-02    0.655E-02
RMM:  18    -0.110253536150E+04   -0.11335E-04   -0.10510E-05  1424   0.800E-03    0.424E-02
RMM:  19    -0.110253537180E+04   -0.10303E-04   -0.29823E-06  1278   0.408E-03    0.401E-02
RMM:  20    -0.110253537763E+04   -0.58279E-05   -0.18786E-06  1176   0.308E-03    0.419E-02
RMM:  21    -0.110253539574E+04   -0.18106E-04   -0.19879E-06  1208   0.313E-03    0.356E-02
RMM:  22    -0.110253544642E+04   -0.50678E-04   -0.34783E-06  1337   0.364E-03    0.179E-02
RMM:  23    -0.110253547672E+04   -0.30299E-04   -0.20982E-06  1258   0.321E-03    0.164E-02
RMM:  24    -0.110253548784E+04   -0.11128E-04   -0.14261E-06  1205   0.269E-03    0.127E-02
RMM:  25    -0.110253550720E+04   -0.19356E-04   -0.83995E-07  1151   0.195E-03    0.595E-03
RMM:  26    -0.110253552611E+04   -0.18911E-04   -0.65954E-07  1135   0.153E-03    0.443E-03
RMM:  27    -0.110253554481E+04   -0.18700E-04   -0.61164E-07  1077   0.121E-03    0.328E-03
RMM:  28    -0.110253556724E+04   -0.22432E-04   -0.74833E-07  1106   0.115E-03    0.259E-03
RMM:  29    -0.110253558822E+04   -0.20973E-04   -0.80680E-07  1064   0.121E-03    0.272E-03
RMM:  30    -0.110253560277E+04   -0.14549E-04   -0.74574E-07  1042   0.116E-03    0.146E-03
RMM:  31    -0.110253561312E+04   -0.10354E-04   -0.60950E-07   986   0.105E-03    0.133E-03
RMM:  32    -0.110253562277E+04   -0.96491E-05   -0.59135E-07   988   0.979E-04    0.112E-03
RMM:  33    -0.110253562948E+04   -0.67089E-05   -0.50865E-07   960   0.937E-04    0.859E-04
RMM:  34    -0.110253563454E+04   -0.50565E-05   -0.44209E-07   940   0.852E-04    0.772E-04
RMM:  35    -0.110253563938E+04   -0.48459E-05   -0.41344E-07   940   0.824E-04    0.506E-04
RMM:  36    -0.110253564291E+04   -0.35338E-05   -0.37635E-07   929   0.788E-04    0.409E-04
RMM:  37    -0.110253564503E+04   -0.21155E-05   -0.30425E-07   903   0.729E-04    0.405E-04
RMM:  38    -0.110253564623E+04   -0.12000E-05   -0.23133E-07   845   0.650E-04    0.423E-04
RMM:  39    -0.110253564706E+04   -0.83444E-06   -0.17450E-07   782   0.578E-04
  13 F= -.11096259E+04 E0= -.11096045E+04  d E =-.204797E-01  mag=    20.2230
       N       E                     dE             d eps       ncg     rms          rms(c)
DAV:   1    -0.110253264554E+04    0.30007E-02   -0.48645E+00  1944   0.473E+00    0.117E+00
RMM:   2    -0.110254751238E+04   -0.14867E-01   -0.13569E-01  2198   0.831E-01    0.358E+00
RMM:   3    -0.110255873208E+04   -0.11220E-01   -0.33993E-02  2213   0.398E-01    0.431E+00
RMM:   4    -0.110253771483E+04    0.21017E-01   -0.27347E-02  2218   0.364E-01    0.228E+00
RMM:   5    -0.110253539048E+04    0.23243E-02   -0.96114E-03  2178   0.204E-01    0.174E+00
RMM:   6    -0.110253704511E+04   -0.16546E-02   -0.49668E-03  2184   0.149E-01    0.181E+00
RMM:   7    -0.110253390015E+04    0.31450E-02   -0.33928E-03  2106   0.129E-01    0.883E-01
RMM:   8    -0.110253504459E+04   -0.11444E-02   -0.28704E-03  2071   0.120E-01    0.935E-01
RMM:   9    -0.110253441588E+04    0.62871E-03   -0.17416E-03  2155   0.875E-02    0.732E-01
RMM:  10    -0.110253427267E+04    0.14320E-03   -0.10602E-03  2140   0.743E-02    0.566E-01
RMM:  11    -0.110253435153E+04   -0.78855E-04   -0.69131E-04  2137   0.548E-02    0.509E-01
RMM:  12    -0.110253434556E+04    0.59669E-05   -0.56859E-04  2083   0.519E-02    0.328E-01
RMM:  13    -0.110253436659E+04   -0.21031E-04   -0.33731E-04  2088   0.418E-02    0.191E-01
RMM:  14    -0.110253447964E+04   -0.11305E-03   -0.17726E-04  2025   0.292E-02    0.144E-01
RMM:  15    -0.110253463805E+04   -0.15840E-03   -0.12554E-04  1854   0.210E-02    0.205E-01
RMM:  16    -0.110253461089E+04    0.27155E-04   -0.71457E-05  1761   0.176E-02    0.630E-02
RMM:  17    -0.110253468035E+04   -0.69455E-04   -0.22487E-05  1562   0.104E-02    0.696E-02
RMM:  18    -0.110253469262E+04   -0.12279E-04   -0.12324E-05  1433   0.799E-03    0.420E-02
RMM:  19    -0.110253470748E+04   -0.14855E-04   -0.32600E-06  1307   0.428E-03    0.377E-02
RMM:  20    -0.110253473275E+04   -0.25272E-04   -0.28998E-06  1275   0.365E-03    0.430E-02
RMM:  21    -0.110253476190E+04   -0.29150E-04   -0.49617E-06  1327   0.478E-03    0.409E-02
RMM:  22    -0.110253482108E+04   -0.59180E-04   -0.50620E-06  1384   0.478E-03    0.186E-02
RMM:  23    -0.110253484799E+04   -0.26907E-04   -0.29912E-06  1305   0.386E-03    0.221E-02
RMM:  24    -0.110253486656E+04   -0.18568E-04   -0.16464E-06  1224   0.309E-03    0.127E-02
RMM:  25    -0.110253489291E+04   -0.26350E-04   -0.10700E-06  1162   0.202E-03    0.839E-03
RMM:  26    -0.110253491684E+04   -0.23938E-04   -0.86245E-07  1145   0.181E-03    0.798E-03
RMM:  27    -0.110253493974E+04   -0.22900E-04   -0.76388E-07  1098   0.134E-03    0.366E-03
RMM:  28    -0.110253496812E+04   -0.28379E-04   -0.93678E-07  1120   0.135E-03    0.320E-03
RMM:  29    -0.110253499194E+04   -0.23814E-04   -0.97380E-07  1088   0.133E-03    0.257E-03
RMM:  30    -0.110253500960E+04   -0.17663E-04   -0.85941E-07  1056   0.126E-03    0.151E-03
RMM:  31    -0.110253502394E+04   -0.14337E-04   -0.80660E-07  1031   0.115E-03    0.134E-03
RMM:  32    -0.110253503686E+04   -0.12922E-04   -0.78235E-07  1013   0.111E-03    0.115E-03
RMM:  33    -0.110253504428E+04   -0.74203E-05   -0.62174E-07   985   0.105E-03    0.118E-03
RMM:  34    -0.110253505054E+04   -0.62631E-05   -0.55956E-07   958   0.934E-04    0.525E-04
RMM:  35    -0.110253505608E+04   -0.55334E-05   -0.51236E-07   968   0.929E-04    0.584E-04
RMM:  36    -0.110253505981E+04   -0.37360E-05   -0.44902E-07   936   0.850E-04    0.322E-04
RMM:  37    -0.110253506232E+04   -0.25097E-05   -0.36249E-07   903   0.795E-04    0.451E-04
RMM:  38    -0.110253506370E+04   -0.13749E-05   -0.27529E-07   849   0.698E-04    0.344E-04
RMM:  39    -0.110253506474E+04   -0.10385E-05   -0.21213E-07   835   0.628E-04    0.153E-04
RMM:  40    -0.110253506542E+04   -0.68837E-06   -0.16112E-07   801   0.565E-04
  14 F= -.11096334E+04 E0= -.11096121E+04  d E =-.280141E-01  mag=    20.2308
       N       E                     dE             d eps       ncg     rms          rms(c)
DAV:   1    -0.110253887329E+04   -0.38085E-02   -0.47048E+00  1938   0.458E+00    0.944E-01
RMM:   2    -0.110255419655E+04   -0.15323E-01   -0.10793E-01  2236   0.727E-01    0.322E+00
RMM:   3    -0.110255660787E+04   -0.24113E-02   -0.25275E-02  2293   0.327E-01    0.355E+00
RMM:   4    -0.110255346959E+04    0.31383E-02   -0.21927E-02  2190   0.327E-01    0.228E+00
RMM:   5    -0.110254558756E+04    0.78820E-02   -0.92217E-03  2144   0.209E-01    0.122E+00
RMM:   6    -0.110254602670E+04   -0.43914E-03   -0.37035E-03  2152   0.125E-01    0.117E+00
RMM:   7    -0.110254627109E+04   -0.24438E-03   -0.22460E-03  2232   0.991E-02    0.134E+00
RMM:   8    -0.110254463053E+04    0.16406E-02   -0.18260E-03  2077   0.941E-02    0.633E-01
RMM:   9    -0.110254494453E+04   -0.31400E-03   -0.15338E-03  2071   0.896E-02    0.483E-01
RMM:  10    -0.110254518389E+04   -0.23936E-03   -0.66505E-04  2219   0.568E-02    0.584E-01
RMM:  11    -0.110254510518E+04    0.78707E-04   -0.43140E-04  2127   0.451E-02    0.475E-01
RMM:  12    -0.110254537840E+04   -0.27322E-03   -0.36887E-04  2153   0.367E-02    0.421E-01
RMM:  13    -0.110254530586E+04    0.72544E-04   -0.26956E-04  2015   0.332E-02    0.193E-01
RMM:  14    -0.110254548034E+04   -0.17448E-03   -0.16567E-04  1991   0.278E-02    0.180E-01
RMM:  15    -0.110254554872E+04   -0.68378E-04   -0.11776E-04  1850   0.204E-02    0.204E-01
RMM:  16    -0.110254554810E+04    0.62184E-06   -0.54782E-05  1751   0.163E-02    0.126E-01
RMM:  17    -0.110254558844E+04   -0.40340E-04   -0.24749E-05  1584   0.108E-02    0.955E-02
RMM:  18    -0.110254560829E+04   -0.19852E-04   -0.13437E-05  1445   0.860E-03    0.505E-02
RMM:  19    -0.110254563162E+04   -0.23332E-04   -0.34145E-06  1307   0.436E-03    0.424E-02
RMM:  20    -0.110254565150E+04   -0.19879E-04   -0.26066E-06  1259   0.365E-03    0.479E-02
RMM:  21    -0.110254567721E+04   -0.25706E-04   -0.27169E-06  1271   0.382E-03    0.484E-02
RMM:  22    -0.110254572898E+04   -0.51770E-04   -0.35040E-06  1338   0.377E-03    0.343E-02
RMM:  23    -0.110254574575E+04   -0.16774E-04   -0.22469E-06  1272   0.364E-03    0.168E-02
RMM:  24    -0.110254576760E+04   -0.21846E-04   -0.11270E-06  1173   0.235E-03    0.109E-02
RMM:  25    -0.110254578867E+04   -0.21073E-04   -0.87092E-07  1141   0.199E-03    0.808E-03
RMM:  26    -0.110254581128E+04   -0.22607E-04   -0.67458E-07  1096   0.156E-03    0.572E-03
RMM:  27    -0.110254583987E+04   -0.28594E-04   -0.74527E-07  1099   0.130E-03    0.318E-03
RMM:  28    -0.110254586587E+04   -0.26004E-04   -0.76072E-07  1064   0.120E-03    0.203E-03
RMM:  29    -0.110254588951E+04   -0.23632E-04   -0.77926E-07  1064   0.117E-03    0.176E-03
RMM:  30    -0.110254590922E+04   -0.19718E-04   -0.82071E-07  1056   0.116E-03    0.140E-03
RMM:  31    -0.110254592320E+04   -0.13975E-04   -0.68831E-07  1002   0.109E-03    0.112E-03
RMM:  32    -0.110254593585E+04   -0.12652E-04   -0.69660E-07   992   0.103E-03    0.944E-04
RMM:  33    -0.110254594573E+04   -0.98762E-05   -0.64305E-07  1019   0.101E-03    0.718E-04
RMM:  34    -0.110254595352E+04   -0.77921E-05   -0.60108E-07   977   0.956E-04    0.732E-04
RMM:  35    -0.110254595927E+04   -0.57506E-05   -0.54195E-07   955   0.932E-04    0.443E-04
RMM:  36    -0.110254596302E+04   -0.37456E-05   -0.47527E-07   960   0.871E-04    0.358E-04
RMM:  37    -0.110254596478E+04   -0.17638E-05   -0.35437E-07   913   0.791E-04    0.190E-04
RMM:  38    -0.110254596588E+04   -0.11047E-05   -0.26602E-07   865   0.677E-04    0.212E-04
RMM:  39    -0.110254596664E+04   -0.75463E-06   -0.19807E-07   803   0.618E-04
  15 F= -.11096501E+04 E0= -.11096287E+04  d E =-.166679E-01  mag=    20.2360
       N       E                     dE             d eps       ncg     rms          rms(c)
DAV:   1    -0.110253424080E+04    0.11725E-01   -0.72360E+00  1920   0.569E+00    0.117E+00
RMM:   2    -0.110255704646E+04   -0.22806E-01   -0.16691E-01  2242   0.903E-01    0.378E+00
RMM:   3    -0.110256318683E+04   -0.61404E-02   -0.39254E-02  2292   0.408E-01    0.404E+00
RMM:   4    -0.110255649706E+04    0.66898E-02   -0.31051E-02  2206   0.386E-01    0.266E+00
RMM:   5    -0.110254560870E+04    0.10888E-01   -0.13448E-02  2152   0.252E-01    0.161E+00
RMM:   6    -0.110254526801E+04    0.34068E-03   -0.58776E-03  2147   0.156E-01    0.148E+00
RMM:   7    -0.110254486083E+04    0.40718E-03   -0.32672E-03  2232   0.120E-01    0.144E+00
RMM:   8    -0.110254359502E+04    0.12658E-02   -0.24275E-03  2093   0.110E-01    0.863E-01
RMM:   9    -0.110254371223E+04   -0.11721E-03   -0.22148E-03  2080   0.107E-01    0.672E-01
RMM:  10    -0.110254411528E+04   -0.40305E-03   -0.97804E-04  2208   0.702E-02    0.784E-01
RMM:  11    -0.110254397393E+04    0.14136E-03   -0.65704E-04  2136   0.553E-02    0.624E-01
RMM:  12    -0.110254442648E+04   -0.45256E-03   -0.64369E-04  2169   0.470E-02    0.563E-01
RMM:  13    -0.110254424361E+04    0.18287E-03   -0.48302E-04  2083   0.467E-02    0.208E-01
RMM:  14    -0.110254462811E+04   -0.38451E-03   -0.30990E-04  2045   0.375E-02    0.301E-01
RMM:  15    -0.110254460924E+04    0.18879E-04   -0.19953E-04  1943   0.275E-02    0.258E-01
RMM:  16    -0.110254461086E+04   -0.16258E-05   -0.84671E-05  1830   0.205E-02    0.168E-01
RMM:  17    -0.110254466827E+04   -0.57409E-04   -0.42150E-05  1727   0.142E-02    0.113E-01
RMM:  18    -0.110254470490E+04   -0.36634E-04   -0.17441E-05  1477   0.980E-03    0.518E-02
RMM:  19    -0.110254474377E+04   -0.38870E-04   -0.66803E-06  1390   0.586E-03    0.477E-02
RMM:  20    -0.110254476845E+04   -0.24670E-04   -0.45861E-06  1310   0.492E-03    0.476E-02
RMM:  21    -0.110254482309E+04   -0.54646E-04   -0.42347E-06  1354   0.464E-03    0.499E-02
RMM:  22    -0.110254489241E+04   -0.69315E-04   -0.42338E-06  1369   0.396E-03    0.334E-02
RMM:  23    -0.110254491036E+04   -0.17956E-04   -0.28990E-06  1248   0.383E-03    0.216E-02
RMM:  24    -0.110254493373E+04   -0.23368E-04   -0.14749E-06  1189   0.271E-03    0.120E-02
RMM:  25    -0.110254495892E+04   -0.25190E-04   -0.10669E-06  1152   0.224E-03    0.872E-03
RMM:  26    -0.110254499092E+04   -0.32000E-04   -0.92360E-07  1138   0.179E-03    0.659E-03
RMM:  27    -0.110254503142E+04   -0.40501E-04   -0.10446E-06  1127   0.152E-03    0.373E-03
RMM:  28    -0.110254506701E+04   -0.35586E-04   -0.10490E-06  1111   0.142E-03    0.245E-03
RMM:  29    -0.110254510006E+04   -0.33050E-04   -0.11390E-06  1100   0.134E-03    0.181E-03
RMM:  30    -0.110254512811E+04   -0.28052E-04   -0.11386E-06  1083   0.134E-03    0.147E-03
RMM:  31    -0.110254514772E+04   -0.19614E-04   -0.99909E-07  1079   0.125E-03    0.112E-03
RMM:  32    -0.110254516638E+04   -0.18658E-04   -0.99685E-07  1026   0.121E-03    0.106E-03
RMM:  33    -0.110254518052E+04   -0.14137E-04   -0.96270E-07  1072   0.121E-03    0.838E-04
RMM:  34    -0.110254518868E+04   -0.81602E-05   -0.77211E-07   986   0.112E-03    0.767E-04
RMM:  35    -0.110254519553E+04   -0.68490E-05   -0.69128E-07   965   0.103E-03    0.560E-04
RMM:  36    -0.110254520028E+04   -0.47556E-05   -0.59492E-07   987   0.995E-04    0.455E-04
RMM:  37    -0.110254520237E+04   -0.20915E-05   -0.44206E-07   920   0.874E-04    0.258E-04
RMM:  38    -0.110254520379E+04   -0.14111E-05   -0.32923E-07   876   0.759E-04    0.229E-04
RMM:  39    -0.110254520475E+04   -0.96102E-06   -0.24655E-07   846   0.675E-04
  16 F= -.11096565E+04 E0= -.11096351E+04  d E =-.230572E-01  mag=    20.2423
[...]
RMM:  17    -0.110279845930E+04   -0.19255E-04   -0.50231E-06  1329   0.551E-03    0.356E-02
RMM:  18    -0.110279846919E+04   -0.98832E-05   -0.19113E-06  1230   0.356E-03    0.174E-02
RMM:  19    -0.110279848046E+04   -0.11268E-04   -0.93637E-07  1148   0.236E-03    0.999E-03
RMM:  20    -0.110279848813E+04   -0.76731E-05   -0.77251E-07  1134   0.218E-03    0.104E-02
RMM:  21    -0.110279849944E+04   -0.11309E-04   -0.53140E-07  1110   0.170E-03    0.517E-03
RMM:  22    -0.110279851288E+04   -0.13445E-04   -0.44645E-07  1092   0.133E-03    0.415E-03
RMM:  23    -0.110279851899E+04   -0.61025E-05   -0.34994E-07  1019   0.122E-03    0.462E-03
RMM:  24    -0.110279852641E+04   -0.74199E-05   -0.27123E-07   999   0.986E-04    0.303E-03
RMM:  25    -0.110279853226E+04   -0.58530E-05   -0.18523E-07   939   0.720E-04    0.211E-03
RMM:  26    -0.110279853898E+04   -0.67236E-05   -0.16688E-07   851   0.603E-04    0.104E-03
RMM:  27    -0.110279854910E+04   -0.10119E-04   -0.22467E-07   932   0.631E-04    0.823E-04
RMM:  28    -0.110279855488E+04   -0.57789E-05   -0.19443E-07   910   0.644E-04    0.103E-03
RMM:  29    -0.110279855981E+04   -0.49309E-05   -0.18689E-07   838   0.568E-04    0.110E-03
RMM:  30    -0.110279856585E+04   -0.60373E-05   -0.21146E-07   906   0.612E-04    0.526E-04
RMM:  31    -0.110279857019E+04   -0.43460E-05   -0.21278E-07   903   0.610E-04    0.882E-04
RMM:  32    -0.110279857338E+04   -0.31818E-05   -0.19624E-07   861   0.596E-04    0.874E-04
RMM:  33    -0.110279857573E+04   -0.23525E-05   -0.18358E-07   851   0.569E-04    0.401E-04
RMM:  34    -0.110279857743E+04   -0.16982E-05   -0.16652E-07   857   0.556E-04    0.177E-04
RMM:  35    -0.110279857845E+04   -0.10192E-05   -0.14391E-07   828   0.523E-04    0.189E-04
RMM:  36    -0.110279857895E+04   -0.50673E-06   -0.11423E-07   760   0.487E-04
 227 F= -.11099139E+04 E0= -.11098923E+04  d E =-.170534E-02  mag=    20.2054
       N       E                     dE             d eps       ncg     rms          rms(c)
DAV:   1    -0.110276641305E+04    0.32165E-01   -0.13339E+01  1896   0.795E+00    0.106E+00
RMM:   2    -0.110279994326E+04   -0.33530E-01   -0.27518E-01  2112   0.115E+00    0.218E+00
RMM:   3    -0.110283348151E+04   -0.33538E-01   -0.52924E-02  2104   0.565E-01    0.534E+00
RMM:   4    -0.110280890573E+04    0.24576E-01   -0.33024E-02  2340   0.375E-01    0.347E+00
RMM:   5    -0.110279634461E+04    0.12561E-01   -0.17692E-02  2079   0.292E-01    0.774E-01
RMM:   6    -0.110279906974E+04   -0.27251E-02   -0.39927E-03  2239   0.133E-01    0.111E+00
RMM:   7    -0.110279897771E+04    0.92033E-04   -0.21982E-03  2210   0.937E-02    0.104E+00
RMM:   8    -0.110279749609E+04    0.14816E-02   -0.17420E-03  2130   0.929E-02    0.385E-01
RMM:   9    -0.110279826907E+04   -0.77298E-03   -0.11814E-03  2130   0.768E-02    0.477E-01
RMM:  10    -0.110279843403E+04   -0.16496E-03   -0.10344E-03  2142   0.685E-02    0.546E-01
RMM:  11    -0.110279827057E+04    0.16347E-03   -0.81752E-04  2112   0.563E-02    0.462E-01
RMM:  12    -0.110279801280E+04    0.25776E-03   -0.44996E-04  2082   0.456E-02    0.220E-01
RMM:  13    -0.110279809934E+04   -0.86542E-04   -0.21845E-04  2057   0.317E-02    0.142E-01
RMM:  14    -0.110279819160E+04   -0.92251E-04   -0.11631E-04  1998   0.239E-02    0.172E-01
RMM:  15    -0.110279818971E+04    0.18883E-05   -0.54433E-05  1750   0.153E-02    0.138E-01
RMM:  16    -0.110279821094E+04   -0.21233E-04   -0.32221E-05  1617   0.123E-02    0.840E-02
RMM:  17    -0.110279823313E+04   -0.22188E-04   -0.17140E-05  1477   0.986E-03    0.467E-02
RMM:  18    -0.110279826927E+04   -0.36139E-04   -0.49075E-06  1354   0.513E-03    0.389E-02
RMM:  19    -0.110279830622E+04   -0.36957E-04   -0.48307E-06  1352   0.469E-03    0.315E-02
RMM:  20    -0.110279832827E+04   -0.22045E-04   -0.38523E-06  1327   0.457E-03    0.308E-02
RMM:  21    -0.110279835374E+04   -0.25468E-04   -0.19600E-06  1252   0.323E-03    0.144E-02
RMM:  22    -0.110279838109E+04   -0.27351E-04   -0.12328E-06  1179   0.238E-03    0.798E-03
RMM:  23    -0.110279839570E+04   -0.14609E-04   -0.90233E-07  1148   0.203E-03    0.100E-02
RMM:  24    -0.110279841224E+04   -0.16537E-04   -0.61221E-07  1101   0.160E-03    0.432E-03
RMM:  25    -0.110279843018E+04   -0.17948E-04   -0.46893E-07  1045   0.113E-03    0.276E-03
RMM:  26    -0.110279844937E+04   -0.19183E-04   -0.45614E-07  1011   0.100E-03    0.255E-03
RMM:  27    -0.110279847005E+04   -0.20688E-04   -0.52726E-07  1030   0.968E-04    0.162E-03
RMM:  28    -0.110279848208E+04   -0.12029E-04   -0.43038E-07   966   0.932E-04    0.146E-03
RMM:  29    -0.110279849211E+04   -0.10025E-04   -0.36852E-07   913   0.806E-04    0.140E-03
RMM:  30    -0.110279850752E+04   -0.15414E-04   -0.48463E-07   987   0.849E-04    0.996E-04
RMM:  31    -0.110279852097E+04   -0.13444E-04   -0.53517E-07  1003   0.903E-04    0.817E-04
RMM:  32    -0.110279852932E+04   -0.83520E-05   -0.47728E-07   946   0.876E-04    0.597E-04
RMM:  33    -0.110279853546E+04   -0.61420E-05   -0.43533E-07   941   0.831E-04    0.441E-04
RMM:  34    -0.110279854046E+04   -0.49992E-05   -0.41620E-07   941   0.810E-04    0.335E-04
RMM:  35    -0.110279854351E+04   -0.30509E-05   -0.36517E-07   923   0.777E-04    0.337E-04
RMM:  36    -0.110279854507E+04   -0.15612E-05   -0.29758E-07   873   0.710E-04    0.179E-04
RMM:  37    -0.110279854575E+04   -0.67767E-06   -0.21802E-07   833   0.634E-04
 228 F= -.11099145E+04 E0= -.11098929E+04  d E =-.229200E-02  mag=    20.2040
       N       E                     dE             d eps       ncg     rms          rms(c)
DAV:   1    -0.110279875343E+04   -0.20836E-03   -0.53115E-01  2040   0.158E+00    0.215E-01
RMM:   2    -0.110279997259E+04   -0.12192E-02   -0.11077E-02  2098   0.229E-01    0.437E-01
RMM:   3    -0.110280122293E+04   -0.12503E-02   -0.19490E-03  2081   0.110E-01    0.116E+00
RMM:   4    -0.110280007991E+04    0.11430E-02   -0.13531E-03  2333   0.767E-02    0.734E-01
RMM:   5    -0.110279976162E+04    0.31829E-03   -0.81946E-04  2003   0.645E-02    0.130E-01
RMM:   6    -0.110280003596E+04   -0.27434E-03   -0.22500E-04  2119   0.324E-02    0.251E-01
RMM:   7    -0.110279997878E+04    0.57186E-04   -0.15283E-04  2137   0.265E-02    0.264E-01
RMM:   8    -0.110279991160E+04    0.67180E-04   -0.10157E-04  1861   0.218E-02    0.173E-01
RMM:   9    -0.110279996753E+04   -0.55932E-04   -0.11326E-04  1932   0.239E-02    0.138E-01
RMM:  10    -0.110279996022E+04    0.73066E-05   -0.66787E-05  1801   0.188E-02    0.120E-01
RMM:  11    -0.110279994941E+04    0.10810E-04   -0.33351E-05  1594   0.125E-02    0.920E-02
RMM:  12    -0.110279994541E+04    0.40051E-05   -0.15798E-05  1433   0.873E-03    0.602E-02
RMM:  13    -0.110279994720E+04   -0.17925E-05   -0.79485E-06  1390   0.679E-03    0.382E-02
RMM:  14    -0.110279995263E+04   -0.54288E-05   -0.41750E-06  1284   0.448E-03    0.391E-02
RMM:  15    -0.110279995332E+04   -0.69307E-06   -0.19114E-06  1224   0.333E-03
 229 F= -.11099159E+04 E0= -.11098943E+04  d E =-.142712E-02  mag=    20.2041
       N       E                     dE             d eps       ncg     rms          rms(c)
DAV:   1    -0.110279917033E+04    0.78229E-03   -0.54276E-01  1950   0.159E+00    0.218E-01
RMM:   2    -0.110280042797E+04   -0.12576E-02   -0.11326E-02  2091   0.231E-01    0.449E-01
RMM:   3    -0.110280171108E+04   -0.12831E-02   -0.19987E-03  2076   0.113E-01    0.117E+00
RMM:   4    -0.110280049475E+04    0.12163E-02   -0.13774E-03  2321   0.786E-02    0.718E-01
RMM:   5    -0.110280021557E+04    0.27918E-03   -0.83042E-04  2020   0.654E-02    0.162E-01
RMM:   6    -0.110280045059E+04   -0.23501E-03   -0.20719E-04  2095   0.315E-02    0.262E-01
RMM:   7    -0.110280052818E+04   -0.77593E-04   -0.16383E-04  2059   0.266E-02    0.391E-01
RMM:   8    -0.110280028372E+04    0.24446E-03   -0.17610E-04  1971   0.298E-02    0.120E-01
RMM:   9    -0.110280040752E+04   -0.12381E-03   -0.11584E-04  1933   0.246E-02    0.146E-01
RMM:  10    -0.110280041503E+04   -0.75056E-05   -0.79099E-05  1827   0.193E-02    0.155E-01
RMM:  11    -0.110280038658E+04    0.28450E-04   -0.43398E-05  1609   0.131E-02    0.894E-02
RMM:  12    -0.110280038398E+04    0.25957E-05   -0.17618E-05  1478   0.980E-03    0.569E-02
RMM:  13    -0.110280039035E+04   -0.63714E-05   -0.60500E-06  1365   0.594E-03    0.455E-02
RMM:  14    -0.110280039611E+04   -0.57551E-05   -0.30384E-06  1305   0.432E-03    0.351E-02
RMM:  15    -0.110280040258E+04   -0.64752E-05   -0.19795E-06  1234   0.337E-03    0.247E-02
RMM:  16    -0.110280041008E+04   -0.75003E-05   -0.13795E-06  1180   0.264E-03    0.160E-02
RMM:  17    -0.110280041357E+04   -0.34805E-05   -0.82847E-07  1140   0.228E-03    0.135E-02
RMM:  18    -0.110280041713E+04   -0.35626E-05   -0.35751E-07  1072   0.150E-03    0.940E-03
RMM:  19    -0.110280041888E+04   -0.17514E-05   -0.21343E-07   981   0.115E-03    0.593E-03
RMM:  20    -0.110280042148E+04   -0.25980E-05   -0.15931E-07   936   0.915E-04    0.410E-03
RMM:  21    -0.110280042621E+04   -0.47316E-05   -0.15871E-07   972   0.827E-04    0.474E-03
RMM:  22    -0.110280042943E+04   -0.32201E-05   -0.15180E-07   949   0.851E-04    0.408E-03
RMM:  23    -0.110280043395E+04   -0.45194E-05   -0.14166E-07   894   0.721E-04    0.160E-03
RMM:  24    -0.110280043688E+04   -0.29300E-05   -0.10509E-07   861   0.579E-04    0.199E-03
RMM:  25    -0.110280043917E+04   -0.22919E-05   -0.82131E-08   764   0.473E-04    0.123E-03
RMM:  26    -0.110280044265E+04   -0.34767E-05   -0.99317E-08   808   0.465E-04    0.712E-04
RMM:  27    -0.110280044607E+04   -0.34262E-05   -0.11948E-07   852   0.494E-04    0.453E-04
RMM:  28    -0.110280044869E+04   -0.26144E-05   -0.11954E-07   826   0.494E-04    0.667E-04
RMM:  29    -0.110280045105E+04   -0.23606E-05   -0.12989E-07   834   0.495E-04    0.419E-04
RMM:  30    -0.110280045260E+04   -0.15480E-05   -0.11510E-07   816   0.491E-04    0.507E-04
RMM:  31    -0.110280045378E+04   -0.11859E-05   -0.10824E-07   785   0.462E-04    0.820E-04
RMM:  32    -0.110280045459E+04   -0.80367E-06   -0.93937E-08   774   0.460E-04
 230 F= -.11099164E+04 E0= -.11098949E+04  d E =-.194807E-02  mag=    20.2047
       N       E                     dE             d eps       ncg     rms          rms(c)
DAV:   1    -0.110280118874E+04   -0.73496E-03   -0.24913E-01  2016   0.109E+00    0.152E-01
RMM:   2    -0.110280176290E+04   -0.57416E-03   -0.54675E-03  2171   0.164E-01    0.264E-01
RMM:   3    -0.110280248234E+04   -0.71944E-03   -0.10602E-03  2141   0.795E-02    0.776E-01
RMM:   4    -0.110280195829E+04    0.52405E-03   -0.61169E-04  2327   0.522E-02    0.634E-01
RMM:   5    -0.110280160598E+04    0.35231E-03   -0.45610E-04  1986   0.483E-02    0.107E-01
RMM:   6    -0.110280177483E+04   -0.16884E-03   -0.96796E-05  1938   0.222E-02    0.127E-01
RMM:   7    -0.110280179247E+04   -0.17643E-04   -0.43546E-05  1873   0.142E-02    0.150E-01
RMM:   8    -0.110280176679E+04    0.25677E-04   -0.30649E-05  1648   0.123E-02    0.878E-02
RMM:   9    -0.110280179538E+04   -0.28584E-04   -0.35330E-05  1726   0.134E-02    0.802E-02
RMM:  10    -0.110280179873E+04   -0.33506E-05   -0.24989E-05  1723   0.113E-02    0.777E-02
RMM:  11    -0.110280179450E+04    0.42298E-05   -0.15948E-05  1457   0.902E-03    0.671E-02
RMM:  12    -0.110280179450E+04   -0.80618E-08   -0.91735E-06  1363   0.676E-03
 231 F= -.11099177E+04 E0= -.11098962E+04  d E =-.125819E-02  mag=    20.2049
       N       E                     dE             d eps       ncg     rms          rms(c)
DAV:   1    -0.110279866912E+04    0.31254E-02   -0.18829E+00  1896   0.301E+00    0.418E-01
RMM:   2    -0.110280337452E+04   -0.47054E-02   -0.41526E-02  2170   0.450E-01    0.721E-01
RMM:   3    -0.110280802256E+04   -0.46480E-02   -0.81512E-03  2147   0.217E-01    0.190E+00
RMM:   4    -0.110280608686E+04    0.19357E-02   -0.41807E-03  2351   0.135E-01    0.184E+00
RMM:   5    -0.110280217005E+04    0.39168E-02   -0.31875E-03  2055   0.126E-01    0.343E-01
RMM:   6    -0.110280332903E+04   -0.11590E-02   -0.76618E-04  2144   0.618E-02    0.494E-01
RMM:   7    -0.110280335377E+04   -0.24734E-04   -0.38676E-04  2168   0.407E-02    0.415E-01
RMM:   8    -0.110280317732E+04    0.17645E-03   -0.31007E-04  2114   0.401E-02    0.190E-01
RMM:   9    -0.110280335701E+04   -0.17969E-03   -0.25858E-04  2102   0.344E-02    0.238E-01
RMM:  10    -0.110280333471E+04    0.22303E-04   -0.18759E-04  2118   0.303E-02    0.208E-01
RMM:  11    -0.110280330894E+04    0.25767E-04   -0.12432E-04  1912   0.241E-02    0.184E-01
RMM:  12    -0.110280330637E+04    0.25695E-05   -0.74439E-05  1813   0.183E-02    0.145E-01
RMM:  13    -0.110280331194E+04   -0.55705E-05   -0.38120E-05  1643   0.138E-02    0.893E-02
RMM:  14    -0.110280331274E+04   -0.79477E-06   -0.20759E-05  1499   0.106E-02    0.435E-02
RMM:  15    -0.110280333804E+04   -0.25305E-04   -0.54695E-06  1362   0.584E-03    0.249E-02
RMM:  16    -0.110280334626E+04   -0.82196E-05   -0.36121E-06  1313   0.455E-03    0.261E-02
RMM:  17    -0.110280335168E+04   -0.54146E-05   -0.15839E-06  1201   0.320E-03    0.120E-02
RMM:  18    -0.110280335878E+04   -0.71039E-05   -0.73873E-07  1133   0.209E-03    0.113E-02
RMM:  19    -0.110280336273E+04   -0.39476E-05   -0.64059E-07  1129   0.196E-03    0.901E-03
RMM:  20    -0.110280337248E+04   -0.97568E-05   -0.49506E-07  1100   0.155E-03    0.518E-03
RMM:  21    -0.110280338134E+04   -0.88525E-05   -0.45643E-07  1096   0.140E-03    0.652E-03
RMM:  22    -0.110280338448E+04   -0.31398E-05   -0.33360E-07  1009   0.131E-03    0.398E-03
RMM:  23    -0.110280338851E+04   -0.40339E-05   -0.20760E-07   973   0.862E-04    0.275E-03
RMM:  24    -0.110280339221E+04   -0.37005E-05   -0.15673E-07   935   0.716E-04    0.283E-03
RMM:  25    -0.110280339660E+04   -0.43932E-05   -0.15102E-07   879   0.607E-04    0.214E-03
RMM:  26    -0.110280340080E+04   -0.41908E-05   -0.14689E-07   877   0.603E-04    0.104E-03
RMM:  27    -0.110280340424E+04   -0.34447E-05   -0.14302E-07   855   0.550E-04    0.882E-04
RMM:  28    -0.110280340755E+04   -0.33136E-05   -0.14307E-07   854   0.540E-04    0.638E-04
RMM:  29    -0.110280341056E+04   -0.30085E-05   -0.15046E-07   849   0.530E-04    0.691E-04
RMM:  30    -0.110280341289E+04   -0.23230E-05   -0.14230E-07   825   0.529E-04    0.398E-04
RMM:  31    -0.110280341524E+04   -0.23562E-05   -0.16626E-07   870   0.527E-04    0.858E-04
RMM:  32    -0.110280341663E+04   -0.13903E-05   -0.14541E-07   855   0.544E-04    0.585E-04
RMM:  33    -0.110280341742E+04   -0.79198E-06   -0.12285E-07   773   0.480E-04
 232 F= -.11099191E+04 E0= -.11098975E+04  d E =-.265640E-02  mag=    20.2069
       N       E                     dE             d eps       ncg     rms          rms(c)
DAV:   1    -0.110280373328E+04   -0.31665E-03   -0.22622E-01  2016   0.104E+00    0.143E-01
RMM:   2    -0.110280428024E+04   -0.54696E-03   -0.48932E-03  2224   0.155E-01    0.322E-01
RMM:   3    -0.110280485684E+04   -0.57660E-03   -0.89999E-04  2200   0.714E-02    0.819E-01
RMM:   4    -0.110280428561E+04    0.57123E-03   -0.67315E-04  2264   0.545E-02    0.506E-01
RMM:   5    -0.110280416932E+04    0.11629E-03   -0.38893E-04  1979   0.449E-02    0.132E-01
RMM:   6    -0.110280427525E+04   -0.10593E-03   -0.76912E-05  1855   0.196E-02    0.144E-01
RMM:   7    -0.110280428197E+04   -0.67166E-05   -0.46445E-05  1814   0.144E-02    0.130E-01
RMM:   8    -0.110280426193E+04    0.20040E-04   -0.32002E-05  1767   0.130E-02    0.555E-02
RMM:   9    -0.110280428624E+04   -0.24316E-04   -0.24117E-05  1637   0.107E-02    0.734E-02
RMM:  10    -0.110280428820E+04   -0.19575E-05   -0.21533E-05  1729   0.994E-03    0.605E-02
RMM:  11    -0.110280429013E+04   -0.19311E-05   -0.11992E-05  1446   0.815E-03    0.480E-02
RMM:  12    -0.110280428929E+04    0.84528E-06   -0.59485E-06  1336   0.565E-03
 233 F= -.11099200E+04 E0= -.11098984E+04  d E =-.922826E-03  mag=    20.2071
       N       E                     dE             d eps       ncg     rms          rms(c)
DAV:   1    -0.110280079110E+04    0.34990E-02   -0.20350E+00  1896   0.313E+00    0.433E-01
RMM:   2    -0.110280712877E+04   -0.63377E-02   -0.44377E-02  2219   0.469E-01    0.137E+00
RMM:   3    -0.110280880864E+04   -0.16799E-02   -0.77562E-03  2219   0.210E-01    0.208E+00
RMM:   4    -0.110280798111E+04    0.82753E-03   -0.63561E-03  2277   0.170E-01    0.146E+00
RMM:   5    -0.110280533219E+04    0.26489E-02   -0.29221E-03  2078   0.124E-01    0.470E-01
RMM:   6    -0.110280580054E+04   -0.46835E-03   -0.73936E-04  2155   0.592E-02    0.389E-01
RMM:   7    -0.110280592814E+04   -0.12761E-03   -0.40823E-04  2156   0.422E-02    0.376E-01
RMM:   8    -0.110280573949E+04    0.18865E-03   -0.27977E-04  2155   0.380E-02    0.184E-01
RMM:   9    -0.110280583510E+04   -0.95601E-04   -0.20159E-04  2068   0.305E-02    0.198E-01
RMM:  10    -0.110280597511E+04   -0.14002E-03   -0.20679E-04  2120   0.298E-02    0.291E-01
RMM:  11    -0.110280583520E+04    0.13992E-03   -0.14129E-04  1913   0.250E-02    0.146E-01
RMM:  12    -0.110280585199E+04   -0.16793E-04   -0.60655E-05  1788   0.171E-02    0.106E-01
RMM:  13    -0.110280587393E+04   -0.21936E-04   -0.24638E-05  1614   0.114E-02    0.917E-02
RMM:  14    -0.110280588084E+04   -0.69060E-05   -0.13399E-05  1431   0.797E-03    0.773E-02
RMM:  15    -0.110280588799E+04   -0.71587E-05   -0.61697E-06  1343   0.558E-03    0.459E-02
RMM:  16    -0.110280589606E+04   -0.80656E-05   -0.35848E-06  1320   0.482E-03    0.185E-02
RMM:  17    -0.110280590797E+04   -0.11915E-04   -0.17150E-06  1218   0.322E-03    0.171E-02
RMM:  18    -0.110280591306E+04   -0.50848E-05   -0.11352E-06  1167   0.268E-03    0.172E-02
RMM:  19    -0.110280591946E+04   -0.63996E-05   -0.77823E-07  1130   0.224E-03    0.669E-03
RMM:  20    -0.110280592809E+04   -0.86318E-05   -0.56207E-07  1123   0.165E-03    0.844E-03
RMM:  21    -0.110280593293E+04   -0.48343E-05   -0.40544E-07  1060   0.142E-03    0.717E-03
RMM:  22    -0.110280593580E+04   -0.28750E-05   -0.26076E-07  1001   0.109E-03    0.374E-03
RMM:  23    -0.110280593993E+04   -0.41330E-05   -0.18318E-07   987   0.839E-04    0.249E-03
RMM:  24    -0.110280594478E+04   -0.48441E-05   -0.16653E-07   969   0.687E-04    0.378E-03
RMM:  25    -0.110280594919E+04   -0.44145E-05   -0.15416E-07   912   0.645E-04    0.290E-03
RMM:  26    -0.110280595296E+04   -0.37678E-05   -0.14474E-07   859   0.571E-04    0.691E-04
RMM:  27    -0.110280595597E+04   -0.30087E-05   -0.13013E-07   806   0.542E-04    0.997E-04
RMM:  28    -0.110280595830E+04   -0.23279E-05   -0.11761E-07   816   0.502E-04    0.847E-04
RMM:  29    -0.110280596140E+04   -0.31032E-05   -0.13906E-07   868   0.509E-04    0.353E-04
RMM:  30    -0.110280596405E+04   -0.26545E-05   -0.14640E-07   868   0.535E-04    0.387E-04
RMM:  31    -0.110280596509E+04   -0.10322E-05   -0.11017E-07   790   0.492E-04    0.406E-04
RMM:  32    -0.110280596604E+04   -0.95212E-06   -0.91299E-08   739   0.444E-04
 234 F= -.11099219E+04 E0= -.11099002E+04  d E =-.275155E-02  mag=    20.2077
       N       E                     dE             d eps       ncg     rms          rms(c)
DAV:   1    -0.110278411334E+04    0.21852E-01   -0.81400E+00  1896   0.626E+00    0.861E-01
RMM:   2    -0.110280597920E+04   -0.21866E-01   -0.17791E-01  2223   0.933E-01    0.182E+00
RMM:   3    -0.110282679235E+04   -0.20813E-01   -0.33423E-02  2204   0.433E-01    0.441E+00
RMM:   4    -0.110281164123E+04    0.15151E-01   -0.21429E-02  2293   0.303E-01    0.290E+00
RMM:   5    -0.110280362308E+04    0.80181E-02   -0.12498E-02  2097   0.249E-01    0.822E-01
RMM:   6    -0.110280473683E+04   -0.11137E-02   -0.28806E-03  2187   0.118E-01    0.794E-01
RMM:   7    -0.110280508016E+04   -0.34333E-03   -0.14899E-03  2217   0.784E-02    0.824E-01
RMM:   8    -0.110280423515E+04    0.84500E-03   -0.11624E-03  2141   0.772E-02    0.369E-01
