Co–organic framework                  
           1
    26.019863    0.650970   -0.319142
    13.580706   22.514769   -0.323177
    -0.085674   -0.050593    6.749647
   O    C    H    Co   Li
  50  65  16  18   1
Direct configuration=     1
   0.05109382  0.26381145  0.30028204
   0.02504412  0.30407683  0.91848287
   0.10103331  0.26528973  0.70535584
   0.67236336  0.06518253  0.34114733
   0.64985020  0.03979294  0.97868596
   0.61425801  0.10854903  0.74085746
   0.02459373  0.40070412  0.64483071
   0.26959831  0.68206044  0.32857878
   0.31995350  0.64510287  0.95573822
   0.28842579  0.59568150  0.76459335
   0.58132651  0.01496319  0.65869300
   0.29585668  0.03640037  0.36514936
   0.22368878  0.07872148  0.59242290
   0.27151524  0.08000847  0.99635924
   0.68050569  0.28659333  0.32905006
   0.68427725  0.23775800  0.60259189
   0.01258738  0.63305891  0.72216347
   0.04203041  0.56267970  0.95135375
   0.60251157  0.28712795  0.03557591
   0.05118966  0.66338207  0.39510354
   0.09223316  0.69178533  0.63256545
   0.37007745  0.98626561  0.70093092
   0.40731119  0.01869382  0.93561559
   0.09876941  0.63479759  0.03194943
   0.70043103  0.96785055  0.64225320
   0.76976312  0.92996614  0.40406385
   0.72706750  0.92077354  0.99860111
   0.35546033  0.69705134  0.49757249
   0.29746506  0.77819763  0.32127121
   0.00550406  0.37796666  0.26546641
   0.97174064  0.45014986  0.04274228
   0.34167916  0.72663765  0.91321076
   0.95465692  0.35913639  0.58699233
   0.91418646  0.32720229  0.36017485
   0.62761079  0.99376467  0.30348032
   0.59274588  0.96199583  0.05664227
   0.90423276  0.38632467  0.96317421
   0.95431852  0.75259641  0.69795291
   0.97960964  0.70397000  0.05823240
   0.90832159  0.74545962  0.29022610
   0.30226732  0.94282224  0.65013070
   0.32196484  0.96370688  0.02724801
   0.35750443  0.89103224  0.24869635
   0.98701717  0.61342040  0.35431064
   0.78509340  0.27523146  0.68641959
   0.70242313  0.34499866  0.99053563
   0.75830091  0.34284330  0.25816941
   0.41444812  0.96666513  0.33023820
   0.72648604  0.50399117  0.73584271
   0.77469812  0.44109658  0.46084621
   0.10381510  0.21968453  0.22093639
   0.14562866  0.17248282  0.34316584
   0.08100897  0.26470466  0.87414388
   0.12056673  0.21830851  0.01965280
   0.65692201  0.11820047  0.26090949
   0.66621250  0.15791668  0.37379849
   0.63154338  0.09303121  0.91872651
   0.63347987  0.13520960  0.06321140
   0.01594037  0.45136053  0.56841000
   0.02268316  0.49046627  0.69494628
   0.23067532  0.66576174  0.25681720
   0.18163029  0.67800166  0.37573003
   0.28408859  0.62489563  0.92631770
   0.23716567  0.63758684  0.06772202
   0.54215173  0.00217944  0.57461345
   0.49718935  0.00562266  0.69312078
   0.24199242  0.07795643  0.41934396
   0.20214208  0.12542333  0.27622489
   0.21881575  0.12415042  0.07521428
   0.17733458  0.17142470  0.95321112
   0.67222348  0.24757144  0.41784870
   0.65236523  0.21349862  0.30022071
   0.02328937  0.58180468  0.77646399
   0.01352448  0.54477814  0.63101748
   0.62273059  0.23313224  0.11061416
   0.61474942  0.19248766  0.99678444
   0.09151020  0.67434890  0.45518656
   0.13867881  0.66423837  0.31376347
   0.40846263  0.00012633  0.75945088
   0.45430379  0.99346914  0.61913751
   0.14186258  0.64138847  0.11667327
   0.19253742  0.62643275  0.00308703
   0.75416650  0.92886263  0.57946196
   0.79737610  0.88221946  0.72028403
   0.78174673  0.88092695  0.92071211
   0.82586212  0.83547495  0.04285673
   0.32330749  0.75597957  0.48601266
   0.32160052  0.79524543  0.64844358
   0.99143985  0.43096000  0.21642549
   0.99972378  0.46826558  0.36537427
   0.33589399  0.77781841  0.85043412
   0.34156885  0.81647585  0.98260224
   0.92175846  0.33816137  0.54332705
   0.88716560  0.33132854  0.69707418
   0.59020061  0.97976755  0.23457957
   0.54371027  0.98539550  0.37093619
   0.87436242  0.36258565  0.88394267
   0.82524230  0.36857970  0.98944451
   0.89962746  0.79315347  0.77525333
   0.85552661  0.83888711  0.65300534
   0.92600218  0.74490491  0.11573048
   0.88392826  0.79201685  0.97540010
   0.31292671  0.89094935  0.72377255
   0.30870057  0.85157471  0.59176688
   0.33742014  0.91017806  0.07535771
   0.33019553  0.87245795  0.92465151
   0.99674643  0.56193780  0.42886257
   0.99018028  0.52286996  0.30203733
   0.81094892  0.30496797  0.75576024
   0.85792142  0.30068032  0.64650119
   0.74879538  0.34340235  0.06854938
   0.79406973  0.34037298  0.93447180
   0.45517515  0.97735222  0.41484835
   0.50083338  0.97319446  0.29661411
   0.75066887  0.47244546  0.59978287
   0.13364386  0.17287910  0.49694837
   0.68686639  0.14410513  0.52104581
   0.03529644  0.47777633  0.84933656
   0.17522232  0.70084740  0.51914599
   0.49573296  0.01827554  0.84883285
   0.18957099  0.17101507  0.79974579
   0.59579659  0.20551540  0.84723078
   0.19562075  0.60785581  0.85451221
   0.81425008  0.83415740  0.19575630
   0.35383607  0.80361874  0.13678200
   0.80905632  0.40125408  0.11252705
   0.86697910  0.84034254  0.49993057
   0.29720548  0.86463468  0.43738499
   0.97759155  0.53542641  0.14749037
   0.87284507  0.27085601  0.51542158
   0.50231968  0.96066256  0.14072119
   0.29131684  0.63499061  0.55106490
   0.04391359  0.32424453  0.50347255
   0.63050684  0.04507619  0.53469272
   0.03661152  0.69066506  0.82872152
   0.35074464  0.01768318  0.12964734
   0.28386388  0.01916177  0.79064785
   0.65022640  0.31723485  0.03908881
   0.70876940  0.28187048  0.76382255
   0.03885437  0.61820936  0.16039407
   0.64470706  0.97212357  0.86369667
   0.97418906  0.32666523  0.15687796
   0.34389603  0.66754387  0.72766031
   0.70403494  0.98400598  0.20499324
   0.97230930  0.39235001  0.83892313
   0.31627065  0.70480972  0.16242411
   0.72323258  0.31745880  0.47531979
   0.96635501  0.69217289  0.49674887
   0.35403159  0.95066851  0.45417120
   0.82938022  0.34773703  0.33733938
Co–organic framework                  
           1
    26.537390    0.712165   -0.389534
    13.900519   22.656237   -0.371248
    -0.104445   -0.053774    6.850175
   O    C    H    Co   Li
  50  65  16  18   1
Direct configuration=     2
   0.05144720  0.26295736  0.29892211
   0.02529214  0.30378187  0.91764261
   0.10085155  0.26541996  0.70409139
   0.67265184  0.06510916  0.34177246
   0.64987491  0.03964395  0.97896337
   0.61428697  0.10835212  0.74013837
   0.02455620  0.40068477  0.64573027
   0.26907022  0.68150213  0.32873345
   0.31994572  0.64493875  0.95474602
   0.28812140  0.59628820  0.76395451
   0.58120195  0.01493082  0.65913461
   0.29525067  0.03675775  0.36579525
   0.22404836  0.07839929  0.59437768
   0.27104808  0.08089374  0.99735530
   0.68039608  0.28666976  0.32825766
   0.68420281  0.23766395  0.60224792
   0.01258929  0.63306372  0.72206847
   0.04200566  0.56251304  0.95087241
   0.60255634  0.28734034  0.03611103
   0.05129844  0.66336981  0.39484829
   0.09244663  0.69171812  0.63292511
   0.36954096  0.98639668  0.70018730
   0.40734132  0.01873156  0.93498626
   0.09883656  0.63467658  0.03179535
   0.70021927  0.96805515  0.64257834
   0.76958463  0.93006203  0.40317886
   0.72722631  0.92047690  0.99858485
   0.35568286  0.69695317  0.49967365
   0.29807223  0.77753829  0.32244392
   0.00605926  0.37721594  0.26739878
   0.97206430  0.44988613  0.04330514
   0.34170110  0.72646017  0.91300499
   0.95530188  0.35913966  0.58763038
   0.91392546  0.32690223  0.35995554
   0.62775640  0.99376064  0.30417304
   0.59279407  0.96205238  0.05643050
   0.90421073  0.38615241  0.96281632
   0.95437584  0.75264621  0.69799956
   0.97947636  0.70418687  0.05749554
   0.90812575  0.74559941  0.29044908
   0.30229617  0.94293006  0.64912566
   0.32173458  0.96402480  0.02571356
   0.35731723  0.89121457  0.24890767
   0.98692005  0.61343426  0.35479847
   0.78522953  0.27496373  0.68644628
   0.70253274  0.34465336  0.99139978
   0.75823367  0.34301618  0.25749792
   0.41478223  0.96663083  0.33082763
   0.72648665  0.50394906  0.73581904
   0.77462566  0.44111874  0.46126679
   0.10387564  0.21971559  0.22165126
   0.14568384  0.17248199  0.34242202
   0.08095570  0.26465009  0.87382023
   0.12073929  0.21816450  0.02033416
   0.65691736  0.11807895  0.26117176
   0.66617729  0.15790579  0.37378620
   0.63158459  0.09317502  0.91949230
   0.63347206  0.13507751  0.06287193
   0.01594486  0.45123719  0.56787972
   0.02266510  0.49030955  0.69462397
   0.23069707  0.66580783  0.25741904
   0.18172568  0.67787635  0.37516417
   0.28433037  0.62469091  0.92847992
   0.23743463  0.63745417  0.06708041
   0.54231574  0.00217792  0.57500129
   0.49719468  0.00560830  0.69289844
   0.24248302  0.07764073  0.41856667
   0.20214391  0.12538798  0.27580541
   0.21890619  0.12407888  0.07384795
   0.17747319  0.17127564  0.95446496
   0.67218878  0.24755044  0.41787586
   0.65236671  0.21349091  0.30041579
   0.02323530  0.58190469  0.77675795
   0.01346188  0.54475170  0.63030429
   0.62271251  0.23300583  0.10989917
   0.61476435  0.19258634  0.99684065
   0.09135856  0.67437323  0.45534615
   0.13874466  0.66424584  0.31413326
   0.40847640  0.00020293  0.76018030
   0.45438851  0.99349046  0.61890729
   0.14188393  0.64142353  0.11637093
   0.19254888  0.62650900  0.00299623
   0.75433918  0.92871258  0.58001769
   0.79729524  0.88230447  0.71993236
   0.78162915  0.88103382  0.92117346
   0.82597144  0.83542067  0.04246365
   0.32318778  0.75606114  0.48718211
   0.32165611  0.79520099  0.64765651
   0.99124954  0.43168030  0.21572071
   0.99968820  0.46832515  0.36617056
   0.33587636  0.77752729  0.84966147
   0.34153840  0.81662940  0.98270853
   0.92166968  0.33803198  0.54297185
   0.88694802  0.33133136  0.69730586
   0.59012477  0.97972510  0.23470577
   0.54381377  0.98537650  0.37080856
   0.87429485  0.36264124  0.88359628
   0.82511978  0.36861287  0.98973298
   0.89971135  0.79309855  0.77510355
   0.85554872  0.83882754  0.65323747
   0.92617421  0.74476811  0.11594277
   0.88365883  0.79222969  0.97532287
   0.31292500  0.89114321  0.72351831
   0.30872961  0.85149906  0.59170364
   0.33739026  0.91010235  0.07518180
   0.33033065  0.87223178  0.92485287
   0.99670402  0.56178371  0.42891471
   0.99015101  0.52296977  0.30246378
   0.81086789  0.30503901  0.75614741
   0.85796683  0.30072424  0.64601495
   0.74872879  0.34340360  0.06887890
   0.79415473  0.34041983  0.93413443
   0.45509488  0.97734626  0.41453335
   0.50073658  0.97319877  0.29685618
   0.75075050  0.47225669  0.59939634
   0.13367435  0.17289019  0.49679316
   0.68685459  0.14410892  0.52096645
   0.03524809  0.47780978  0.84912960
   0.17524233  0.70076668  0.51901047
   0.49573243  0.01825826  0.84878596
   0.18954545  0.17098814  0.79994618
   0.59581016  0.20550637  0.84730661
   0.19559656  0.60792384  0.85476019
   0.81426658  0.83413402  0.19583345
   0.35385955  0.80360432  0.13681993
   0.80902961  0.40125027  0.11263835
   0.86700540  0.84031801  0.49972219
   0.29726369  0.86459086  0.43747069
   0.97762257  0.53540337  0.14767036
   0.87280894  0.27089679  0.51535473
   0.50231907  0.96064803  0.14078473
   0.29195955  0.63510524  0.55224376
   0.04481171  0.32475479  0.50281735
   0.63014016  0.04545455  0.53282399
   0.03622351  0.69083530  0.82829193
   0.35143437  0.01736182  0.13179737
   0.28269354  0.01896507  0.79166576
   0.64964972  0.31765447  0.04035077
   0.70901494  0.28187074  0.76231479
   0.03870601  0.61874878  0.16038621
   0.64466644  0.97194507  0.86378724
   0.97475745  0.32741728  0.15827775
   0.34265645  0.66788519  0.72575900
   0.70408218  0.98427007  0.20433958
   0.97168931  0.39317629  0.83835240
   0.31589236  0.70578386  0.16146709
   0.72302466  0.31738442  0.47586496
   0.96658316  0.69197276  0.49737795
   0.35463680  0.94995230  0.45205722
   0.82918142  0.34782109  0.33746444
Co–organic framework                  
           1
    26.252589    0.678488   -0.350796
    13.724522   22.578385   -0.344794
    -0.094115   -0.052024    6.794853
   O    C    H    Co   Li
  50  65  16  18   1
Direct configuration=     3
   0.05125257  0.26342506  0.29966068
   0.02515700  0.30394355  0.91809801
   0.10095080  0.26534857  0.70477752
   0.67249544  0.06514960  0.34143228
   0.64986074  0.03972547  0.97881333
   0.61427060  0.10845990  0.74052883
   0.02457608  0.40069527  0.64524273
   0.26935271  0.68180693  0.32865413
   0.31994945  0.64502857  0.95528465
   0.28828902  0.59595599  0.76430039
   0.58126894  0.01494836  0.65889588
   0.29557958  0.03656152  0.36544683
   0.22385188  0.07857586  0.59331698
   0.27130445  0.08040887  0.99681451
   0.68045593  0.28662786  0.32868764
   0.68424268  0.23771533  0.60243513
   0.01258832  0.63306109  0.72211996
   0.04201837  0.56260420  0.95113411
   0.60253302  0.28722418  0.03581990
   0.05123970  0.66337665  0.39498619
   0.09233087  0.69175511  0.63272924
   0.36983166  0.98632439  0.70059278
   0.40732544  0.01871098  0.93532724
   0.09879974  0.63474286  0.03187898
   0.70033456  0.96794296  0.64240240
   0.76968181  0.93000941  0.40365932
   0.72713907  0.92063935  0.99859388
   0.35556147  0.69700703  0.49853349
   0.29774061  0.77789962  0.32180721
   0.00575501  0.37762716  0.26635071
   0.97188798  0.45003075  0.04299920
   0.34168845  0.72655729  0.91311706
   0.95495327  0.35913859  0.58728115
   0.91406506  0.32706608  0.36007680
   0.62767749  0.99376298  0.30379669
   0.59276839  0.96202151  0.05654490
   0.90422191  0.38624664  0.96301109
   0.95434511  0.75261903  0.69797380
   0.97954967  0.70406811  0.05789504
   0.90823215  0.74552270  0.29032867
   0.30228145  0.94287116  0.64967014
   0.32186104  0.96385069  0.02654570
   0.35741918  0.89111460  0.24879340
   0.98697242  0.61342654  0.35453438
   0.78515467  0.27511035  0.68643203
   0.70247155  0.34484234  0.99093181
   0.75827107  0.34292156  0.25786179
   0.41460138  0.96664995  0.33050645
   0.72648612  0.50397210  0.73583202
   0.77466477  0.44110652  0.46103901
   0.10384285  0.21969863  0.22126321
   0.14565427  0.17248254  0.34282509
   0.08098432  0.26467990  0.87399618
   0.12064514  0.21824344  0.01996431
   0.65691919  0.11814541  0.26102998
   0.66619626  0.15791171  0.37379308
   0.63156278  0.09309636  0.91907635
   0.63347575  0.13514978  0.06305650
   0.01594201  0.45130469  0.56816767
   0.02267419  0.49039528  0.69479937
   0.23068535  0.66578261  0.25709242
   0.18167372  0.67794504  0.37547096
   0.28419804  0.62480308  0.92730692
   0.23728890  0.63752709  0.06742743
   0.54222700  0.00217892  0.57479016
   0.49719180  0.00561617  0.69301902
   0.24221670  0.07781403  0.41898678
   0.20214288  0.12540734  0.27603299
   0.21885743  0.12411819  0.07458864
   0.17739717  0.17135728  0.95378487
   0.67220741  0.24756188  0.41786138
   0.65236581  0.21349512  0.30031003
   0.02326490  0.58184990  0.77659848
   0.01349580  0.54476613  0.63069143
   0.62272189  0.23307500  0.11028740
   0.61475675  0.19253237  0.99680976
   0.09144055  0.67435974  0.45526029
   0.13870900  0.66424181  0.31393238
   0.40846909  0.00016101  0.75978444
   0.45434293  0.99347890  0.61903164
   0.14187267  0.64140439  0.11653465
   0.19254309  0.62646730  0.00304515
   0.75424498  0.92879484  0.57971598
   0.79733946  0.88225789  0.72012317
   0.78169304  0.88097520  0.92092351
   0.82591225  0.83545051  0.04267644
   0.32325246  0.75601632  0.48654829
   0.32162612  0.79522540  0.64808318
   0.99135611  0.43128608  0.21610138
   0.99970745  0.46829248  0.36573874
   0.33588471  0.77768656  0.85008152
   0.34155557  0.81654536  0.98265052
   0.92171712  0.33810268  0.54316535
   0.88706549  0.33132955  0.69718131
   0.59016549  0.97974823  0.23463786
   0.54375781  0.98538702  0.37087731
   0.87433174  0.36261077  0.88378426
   0.82518603  0.36859457  0.98957705
   0.89966581  0.79312870  0.77518454
   0.85553641  0.83886014  0.65311169
   0.92608053  0.74484313  0.11582726
   0.88380545  0.79211295  0.97536538
   0.31292696  0.89103717  0.72365552
   0.30871357  0.85154048  0.59173804
   0.33740609  0.91014374  0.07527759
   0.33025648  0.87235565  0.92474377
   0.99672616  0.56186795  0.42888717
   0.99016717  0.52291511  0.30223234
   0.81091188  0.30500004  0.75593763
   0.85794268  0.30070029  0.64627824
   0.74876466  0.34340283  0.06870054
   0.79410915  0.34039432  0.93431679
   0.45513832  0.97734944  0.41470459
   0.50078881  0.97319629  0.29672538
   0.75070561  0.47236007  0.59960617
   0.13365799  0.17288417  0.49687713
   0.68686101  0.14410684  0.52100953
   0.03527445  0.47779143  0.84924195
   0.17523117  0.70081087  0.51908413
   0.49573265  0.01826771  0.84881145
   0.18955905  0.17100284  0.79983774
   0.59580276  0.20551132  0.84726545
   0.19560988  0.60788659  0.85462561
   0.81425753  0.83414682  0.19579161
   0.35384678  0.80361224  0.13679930
   0.80904399  0.40125232  0.11257814
   0.86699114  0.84033147  0.49983514
   0.29723200  0.86461489  0.43742407
   0.97760564  0.53541600  0.14757268
   0.87282868  0.27087444  0.51539102
   0.50231931  0.96065598  0.14075033
   0.29161252  0.63504322  0.55160090
   0.04432926  0.32447673  0.50316639
   0.63034072  0.04524724  0.53383787
   0.03643410  0.69074175  0.82852625
   0.35105948  0.01753831  0.13062913
   0.28332446  0.01907127  0.79112033
   0.64996289  0.31742420  0.03966793
   0.70888280  0.28187095  0.76313115
   0.03878880  0.61845352  0.16038938
   0.64468748  0.97204266  0.86373894
   0.97445362  0.32700647  0.15751329
   0.34332838  0.66769713  0.72679506
   0.70405818  0.98412569  0.20469289
   0.97202847  0.39272359  0.83866218
   0.31610181  0.70525057  0.16198462
   0.72313643  0.31742484  0.47557063
   0.96645872  0.69208247  0.49703636
   0.35430705  0.95034490  0.45320295
   0.82928918  0.34777487  0.33739734
Co–organic framework                  
           1
    26.165120    0.668146   -0.338899
    13.670469   22.554475   -0.336669
    -0.090943   -0.051486    6.777863
   O    C    H    Co   Li
  50  65  16  18   1
Direct configuration=     4
   0.05119281  0.26356909  0.29988916
   0.02511526  0.30399331  0.91823905
   0.10098141  0.26532660  0.70498988
   0.67244701  0.06516201  0.34132716
   0.64985648  0.03975058  0.97876680
   0.61426564  0.10849310  0.74064963
   0.02458232  0.40069852  0.64509174
   0.26944083  0.68190095  0.32862880
   0.31995069  0.64505624  0.95545131
   0.28834049  0.59585368  0.76440757
   0.58128977  0.01495380  0.65882184
   0.29568136  0.03650118  0.36533865
   0.22379130  0.07863021  0.59298869
   0.27138331  0.08025957  0.99664718
   0.68047439  0.28661496  0.32882072
   0.68425511  0.23773117  0.60249298
   0.01258800  0.63306028  0.72213590
   0.04202243  0.56263230  0.95121502
   0.60252563  0.28718839  0.03572993
   0.05122147  0.66337874  0.39502898
   0.09229503  0.69176647  0.63266874
   0.36992171  0.98630222  0.70071794
   0.40732044  0.01870463  0.93543286
   0.09878841  0.63476327  0.03190486
   0.70037018  0.96790844  0.64234786
   0.76971184  0.92999322  0.40380798
   0.72711225  0.92068938  0.99859664
   0.35552400  0.69702360  0.49818062
   0.29763834  0.77801085  0.32161021
   0.00566135  0.37775378  0.26602625
   0.97183352  0.45007525  0.04290459
   0.34168466  0.72658722  0.91315168
   0.95484515  0.35913814  0.58717357
   0.91410861  0.32711662  0.36011394
   0.62765305  0.99376368  0.30368029
   0.59276036  0.96201199  0.05658039
   0.90422550  0.38627567  0.96307127
   0.95433553  0.75261064  0.69796591
   0.97957219  0.70403154  0.05801874
   0.90826506  0.74549911  0.29029131
   0.30227674  0.94285300  0.64983881
   0.32189992  0.96379707  0.02680333
   0.35745067  0.89108384  0.24875796
   0.98698868  0.61342419  0.35445254
   0.78513167  0.27515550  0.68642758
   0.70245290  0.34490055  0.99078682
   0.75828249  0.34289241  0.25797449
   0.41454533  0.96665579  0.33040727
   0.72648599  0.50397920  0.73583601
   0.77467691  0.44110277  0.46096844
   0.10383269  0.21969340  0.22114313
   0.14564506  0.17248269  0.34294993
   0.08099322  0.26468909  0.87405059
   0.12061608  0.21826774  0.01984987
   0.65691987  0.11816589  0.26098601
   0.66620216  0.15791354  0.37379517
   0.63155593  0.09307212  0.91894768
   0.63347698  0.13517204  0.06311356
   0.01594120  0.45132548  0.56825675
   0.02267713  0.49042169  0.69485357
   0.23068171  0.66577484  0.25699134
   0.18165768  0.67796618  0.37556596
   0.28415727  0.62483761  0.92694383
   0.23724376  0.63754950  0.06753503
   0.54219950  0.00217920  0.57472493
   0.49719091  0.00561860  0.69305636
   0.24213430  0.07786733  0.41911708
   0.20214257  0.12541330  0.27610343
   0.21884229  0.12413027  0.07481801
   0.17737378  0.17138242  0.95357433
   0.67221321  0.24756542  0.41785685
   0.65236554  0.21349642  0.30027728
   0.02327402  0.58183303  0.77654912
   0.01350631  0.54477058  0.63081122
   0.62272487  0.23309631  0.11040751
   0.61475432  0.19251574  0.99680026
   0.09146597  0.67435561  0.45523360
   0.13869796  0.66424056  0.31387025
   0.40846680  0.00014810  0.75966193
   0.45432875  0.99347532  0.61907022
   0.14186913  0.64139848  0.11658538
   0.19254123  0.62645445  0.00306035
   0.75421591  0.92882016  0.57962263
   0.79735308  0.88224355  0.72018223
   0.78171280  0.88095717  0.92084609
   0.82589391  0.83545968  0.04274238
   0.32327252  0.75600255  0.48635199
   0.32161681  0.79523291  0.64821530
   0.99138854  0.43116465  0.21621950
   0.99971342  0.46828243  0.36560505
   0.33588750  0.77773563  0.85021140
   0.34156077  0.81651947  0.98263262
   0.92173193  0.33812447  0.54322511
   0.88710195  0.33132904  0.69714257
   0.59017816  0.97975537  0.23461675
   0.54374045  0.98539024  0.37089868
   0.87434312  0.36260139  0.88384244
   0.82520657  0.36858896  0.98952869
   0.89965172  0.79313797  0.77520965
   0.85553265  0.83887018  0.65307273
   0.92605160  0.74486621  0.11579156
   0.88385075  0.79207703  0.97537843
   0.31292739  0.89100450  0.72369812
   0.30870865  0.85155324  0.59174868
   0.33741105  0.91015649  0.07530719
   0.33023367  0.87239379  0.92470998
   0.99673315  0.56189391  0.42887852
   0.99017213  0.52289828  0.30216072
   0.81092550  0.30498805  0.75587265
   0.85793512  0.30069290  0.64635983
   0.74877580  0.34340260  0.06864527
   0.79409495  0.34038644  0.93437334
   0.45515178  0.97735044  0.41475753
   0.50080503  0.97319554  0.29668481
   0.75069182  0.47239190  0.59967110
   0.13365289  0.17288230  0.49690316
   0.68686299  0.14410620  0.52102286
   0.03528258  0.47778579  0.84927672
   0.17522777  0.70082448  0.51910691
   0.49573273  0.01827063  0.84881933
   0.18956330  0.17100737  0.79980412
   0.59580048  0.20551285  0.84725272
   0.19561397  0.60787511  0.85458396
   0.81425474  0.83415077  0.19577866
   0.35384283  0.80361467  0.13679292
   0.80904845  0.40125296  0.11255948
   0.86698673  0.84033561  0.49987012
   0.29722221  0.86462229  0.43740966
   0.97760042  0.53541988  0.14754245
   0.87283476  0.27086756  0.51540225
   0.50231940  0.96065843  0.14073967
   0.29150483  0.63502400  0.55140247
   0.04417912  0.32439087  0.50327551
   0.63040252  0.04518341  0.53415169
   0.03649926  0.69071299  0.82859856
   0.35094356  0.01759257  0.13026783
   0.28352043  0.01910423  0.79095036
   0.65005977  0.31735337  0.03945626
   0.70884172  0.28187096  0.76338412
   0.03881404  0.61836258  0.16039055
   0.64469416  0.97207274  0.86372385
   0.97435881  0.32687979  0.15727751
   0.34353646  0.66763941  0.72711499
   0.70405047  0.98408118  0.20480248
   0.97213298  0.39258422  0.83875805
   0.31616592  0.70508632  0.16214510
   0.72317120  0.31743734  0.47547929
   0.96642032  0.69211624  0.49693068
   0.35420522  0.95046573  0.45355778
   0.82932255  0.34776067  0.33737644
Co–organic framework                  
           1
    26.071115    0.657030   -0.326113
    13.612378   22.528779   -0.327937
    -0.087533   -0.050908    6.759603
   O    C    H    Co   Li
  50  65  16  18   1
Direct configuration=     5
   0.05112861  0.26372401  0.30013526
   0.02507034  0.30404683  0.91839102
   0.10101435  0.26530297  0.70521864
   0.67239483  0.06517534  0.34121396
   0.64985194  0.03977760  0.97871666
   0.61426034  0.10852881  0.74077976
   0.02458906  0.40070202  0.64492904
   0.26953598  0.68200213  0.32860126
   0.31995205  0.64508600  0.95563085
   0.28839579  0.59574364  0.76452307
   0.58131225  0.01495965  0.65874203
   0.29579101  0.03643630  0.36522199
   0.22372612  0.07868867  0.59263502
   0.27146810  0.08009898  0.99646694
   0.68049425  0.28660110  0.32896408
   0.68426852  0.23774822  0.60255527
   0.01258766  0.63305941  0.72215309
   0.04202684  0.56266252  0.95130215
   0.60251763  0.28714987  0.03563304
   0.05120182  0.66338097  0.39507510
   0.09225641  0.69177868  0.63260360
   0.37001873  0.98627840  0.70085266
   0.40731504  0.01869779  0.93554667
   0.09877623  0.63478523  0.03193274
   0.70040852  0.96787131  0.64228908
   0.76974416  0.92997582  0.40396812
   0.72708342  0.92074319  0.99859961
   0.35548368  0.69704141  0.49780047
   0.29752828  0.77813047  0.32139800
   0.00556062  0.37788996  0.26567669
   0.97177490  0.45012311  0.04280271
   0.34168062  0.72661940  0.91318895
   0.95472859  0.35913761  0.58705784
   0.91415564  0.32717100  0.36015383
   0.62762672  0.99376442  0.30355491
   0.59275169  0.96200174  0.05661866
   0.90422941  0.38630691  0.96313608
   0.95432520  0.75260162  0.69795743
   0.97959639  0.70399220  0.05815202
   0.90830051  0.74547373  0.29025102
   0.30227161  0.94283345  0.65002056
   0.32194172  0.96373940  0.02708090
   0.35748457  0.89105075  0.24871977
   0.98700622  0.61342166  0.35436434
   0.78510695  0.27520406  0.68642278
   0.70243291  0.34496318  0.99063056
   0.75829474  0.34286106  0.25809593
   0.41448492  0.96666204  0.33030050
   0.72648586  0.50398684  0.73584030
   0.77469000  0.44109874  0.46089239
   0.10382174  0.21968777  0.22101378
   0.14563511  0.17248285  0.34308446
   0.08100283  0.26469898  0.87410917
   0.12058482  0.21829387  0.01972658
   0.65692065  0.11818792  0.26093860
   0.66620851  0.15791551  0.37379741
   0.63154853  0.09304604  0.91880909
   0.63347834  0.13519600  0.06317502
   0.01594034  0.45134785  0.56835271
   0.02268033  0.49045011  0.69491193
   0.23067778  0.66576648  0.25688245
   0.18164040  0.67798891  0.37566831
   0.28411342  0.62487475  0.92655266
   0.23719512  0.63757359  0.06765100
   0.54216985  0.00217950  0.57465470
   0.49718995  0.00562120  0.69309658
   0.24204553  0.07792464  0.41925755
   0.20214224  0.12541971  0.27617932
   0.21882596  0.12414326  0.07506514
   0.17734862  0.17140946  0.95334751
   0.67221947  0.24756922  0.41785197
   0.65236526  0.21349782  0.30024199
   0.02328383  0.58181489  0.77649594
   0.01351763  0.54477537  0.63094027
   0.62272810  0.23311923  0.11053689
   0.61475166  0.19249785  0.99679005
   0.09149338  0.67435118  0.45520479
   0.13868605  0.66423921  0.31380333
   0.40846433  0.00013420  0.75952995
   0.45431346  0.99347147  0.61911181
   0.14186530  0.64139213  0.11664005
   0.19253920  0.62644063  0.00307675
   0.75418462  0.92884738  0.57952207
   0.79736774  0.88222813  0.72024586
   0.78173408  0.88093777  0.92076266
   0.82587414  0.83546953  0.04281345
   0.32329416  0.75598774  0.48614048
   0.32160677  0.79524098  0.64835766
   0.99142328  0.43103401  0.21634684
   0.99971985  0.46827162  0.36546100
   0.33589058  0.77778842  0.85035126
   0.34156634  0.81649163  0.98261336
   0.92174792  0.33814793  0.54328944
   0.88714126  0.33132851  0.69710076
   0.59019184  0.97976306  0.23459397
   0.54372175  0.98539370  0.37092172
   0.87435536  0.36259131  0.88390511
   0.82522872  0.36858293  0.98947656
   0.89963655  0.79314794  0.77523672
   0.85552862  0.83888099  0.65303075
   0.92602044  0.74489104  0.11575312
   0.88389954  0.79203840  0.97539246
   0.31292779  0.89096934  0.72374404
   0.30870337  0.85156696  0.59176012
   0.33741642  0.91017022  0.07533904
   0.33020915  0.87243482  0.92467356
   0.99674074  0.56192185  0.42886916
   0.99017745  0.52288018  0.30208356
   0.81094016  0.30497515  0.75580263
   0.85792695  0.30068494  0.64644774
   0.74878782  0.34340237  0.06858569
   0.79407963  0.34037795  0.93443431
   0.45516629  0.97735151  0.41481455
   0.50082251  0.97319475  0.29664107
   0.75067699  0.47242615  0.59974104
   0.13364739  0.17288030  0.49693122
   0.68686513  0.14410551  0.52103722
   0.03529134  0.47777972  0.84931417
   0.17522412  0.70083912  0.51913144
   0.49573282  0.01827376  0.84882781
   0.18956789  0.17101225  0.79976790
   0.59579802  0.20551449  0.84723900
   0.19561836  0.60786278  0.85453909
   0.81425175  0.83415501  0.19576470
   0.35383858  0.80361729  0.13678605
   0.80905327  0.40125365  0.11253936
   0.86698197  0.84034006  0.49990780
   0.29721167  0.86463024  0.43739415
   0.97759479  0.53542407  0.14750988
   0.87284131  0.27086016  0.51541435
   0.50231950  0.96066106  0.14072818
   0.29138871  0.63500328  0.55118889
   0.04401709  0.32429844  0.50339344
   0.63046901  0.04511477  0.53448978
   0.03656947  0.69068208  0.82867640
   0.35081871  0.01765092  0.12987869
   0.28373178  0.01913977  0.79076685
   0.65016412  0.31727720  0.03922813
   0.70879740  0.28187094  0.76365674
   0.03884110  0.61826474  0.16039186
   0.64470141  0.97210511  0.86370754
   0.97425641  0.32674347  0.15702380
   0.34376066  0.66757739  0.72745939
   0.70404208  0.98403330  0.20492061
   0.97224541  0.39243432  0.83886131
   0.31623476  0.70490963  0.16231808
   0.72320872  0.31745080  0.47538079
   0.96637898  0.69215255  0.49681685
   0.35409560  0.95059569  0.45394012
   0.82935851  0.34774541  0.33735389
Co–organic framework                  
           1
    26.047165    0.654198   -0.322855
    13.597577   22.522232   -0.325713
    -0.086665   -0.050761    6.754950
   O    C    H    Co   Li
  50  65  16  18   1
Direct configuration=     6
   0.05111225  0.26376352  0.30019811