Co–organic framework                  
           1
    25.559410    1.278636   -0.281869
    13.895215   22.012438   -0.305205
    -0.075717   -0.051025    6.766202
   O    C    H    Co   Li
  50  65  16  18   1
Direct configuration=     1
   0.03807718  0.26856055  0.30248066
   0.01266490  0.31094602  0.91818694
   0.09393993  0.26600680  0.71011541
   0.65909905  0.08090147  0.34116778
   0.63746256  0.05407435  0.98193176
   0.59791644  0.12472865  0.74134239
   0.01764359  0.40386948  0.64499759
   0.31292662  0.63623744  0.32829239
   0.35754686  0.60847346  0.96299137
   0.32707928  0.55909592  0.77112685
   0.57393904  0.02331079  0.65920929
   0.29314086  0.02250786  0.36199422
   0.21816035  0.06918425  0.59347228
   0.26926548  0.07005839  0.00245953
   0.65447223  0.31118320  0.32638544
   0.65977123  0.26090737  0.59949529
   0.02788562  0.62691406  0.71383087
   0.05425947  0.55586702  0.94523489
   0.57496265  0.31190287  0.03246307
   0.06868533  0.65487484  0.38423141
   0.11392992  0.67811668  0.62244911
   0.36882874  0.98135256  0.69765004
   0.40710491  0.01094659  0.93994585
   0.11769376  0.62397276  0.02184970
   0.69735563  0.97974583  0.64380100
   0.76915617  0.94013689  0.40242945
   0.72772781  0.93129392  0.99722206
   0.38649237  0.67017345  0.50470345
   0.31319827  0.75417618  0.33875930
   0.99593580  0.38391249  0.26758743
   0.96396790  0.45840194  0.04629541
   0.36315742  0.70204266  0.92693414
   0.94122327  0.37085829  0.58802886
   0.89640366  0.34398408  0.35861169
   0.62286894  0.00210223  0.30597290
   0.59174118  0.96695896  0.05838355
   0.88349187  0.40589237  0.95895866
   0.96688675  0.75201026  0.69214288
   0.99324573  0.70011335  0.04911265
   0.91967919  0.74738963  0.28509971
   0.30966950  0.92736891  0.65726485
   0.33181196  0.94863003  0.02446867
   0.36775677  0.87495127  0.25286288
   0.00023270  0.60996205  0.34962038
   0.76262875  0.29618423  0.68222408
   0.67558840  0.36993091  0.98824470
   0.73368273  0.36594924  0.25406728
   0.42091419  0.95477748  0.33827012
   0.70786001  0.53337399  0.73066148
   0.74973888  0.46587448  0.45479599
   0.09339870  0.22091411  0.22444304
   0.13673318  0.17053451  0.34693197
   0.07129809  0.26736735  0.87725735
   0.11155076  0.21821708  0.02346151
   0.63965554  0.13623919  0.26007051
   0.64646131  0.17788080  0.37193704
   0.61590781  0.10924671  0.91933232
   0.61497023  0.15363735  0.06271587
   0.01384831  0.45296696  0.56874481
   0.02530150  0.48927988  0.69343636
   0.26517309  0.63150741  0.25726251
   0.21278902  0.64992689  0.37454270
   0.32126785  0.58883284  0.93258755
   0.26935726  0.60639770  0.06611547
   0.53840648  0.00546945  0.57652076
   0.49451939  0.00546214  0.69579131
   0.23750105  0.06786033  0.42052767
   0.19584880  0.11923993  0.28074674
   0.21376721  0.11721951  0.08038924
   0.17093906  0.16725833  0.95823181
   0.64742174  0.27108627  0.41511280
   0.62901704  0.23574574  0.29786092
   0.03520970  0.57641192  0.77067140
   0.02103591  0.54200772  0.62761854
   0.59818767  0.25581257  0.10808945
   0.59265490  0.21322001  0.99529351
   0.11267493  0.66084653  0.44592966
   0.16378006  0.64499152  0.30592192
   0.40803959  0.99373198  0.76155815
   0.45480703  0.98863580  0.62354680
   0.16523038  0.62437569  0.10658578
   0.21939835  0.60367524  0.99382310
   0.75397194  0.93908775  0.57848592
   0.80100892  0.89021346  0.71787179
   0.78535639  0.88933076  0.91857662
   0.83243106  0.84163897  0.03961088
   0.34480426  0.73113354  0.49796202
   0.33904684  0.77293783  0.66013921
   0.98497815  0.43677191  0.21839863
   0.99804051  0.47108781  0.36570893
   0.35329341  0.75581292  0.86284507
   0.35489528  0.79743924  0.99340201
   0.90536573  0.35349438  0.54196153
   0.86810204  0.34905921  0.69452061
   0.58780779  0.98492999  0.23665572
   0.54238943  0.98695706  0.37387432
   0.85374226  0.38186054  0.88021046
   0.80257819  0.38970266  0.98525223
   0.90926489  0.79561589  0.77003836
   0.86218329  0.84400552  0.64905449
   0.93775724  0.74515299  0.10940288
   0.89330078  0.79518156  0.97036146
   0.32345827  0.87342965  0.73093826
   0.32221416  0.83159471  0.60095622
   0.34726731  0.89454319  0.07849247
   0.34111919  0.85506063  0.93224472
   0.00499471  0.56004270  0.42563479
   0.99363581  0.52393633  0.30053550
   0.78901101  0.32538051  0.75198587
   0.83809413  0.31921699  0.64341229
   0.72374199  0.36674255  0.06515772
   0.77079621  0.36200987  0.93050729
   0.45840168  0.97050390  0.42057332
   0.50310638  0.96950578  0.30148071
   0.72896015  0.49950624  0.59414311
   0.12348399  0.17197027  0.50007803
   0.66844932  0.16358287  0.51845596
   0.03777797  0.47569530  0.84776331
   0.20953494  0.66843636  0.52377663
   0.49110085  0.01954804  0.85061949
   0.18434889  0.16585556  0.80547813
   0.57311794  0.22626480  0.84558050
   0.22161235  0.58677624  0.84315692
   0.82063440  0.84079670  0.19269840
   0.36714064  0.78495007  0.14821748
   0.78474345  0.42389846  0.10744792
   0.87345430  0.84529741  0.49560828
   0.31019128  0.84445660  0.44607952
   0.98154101  0.53733849  0.14600432
   0.85448163  0.28825712  0.51256854
   0.50654584  0.95554125  0.14635749
   0.34283667  0.59003417  0.55801182
   0.03760675  0.32585305  0.50186906
   0.61956970  0.05786009  0.53542359
   0.05348298  0.68322413  0.81832949
   0.35477085  0.00661506  0.14023351
   0.28029079  0.01041028  0.79603113
   0.62252704  0.34259808  0.03583566
   0.68361494  0.30547050  0.76107604
   0.05466261  0.61042243  0.15172262
   0.64097304  0.98159366  0.86397918
   0.95730286  0.34027680  0.14857988
   0.37971238  0.63260526  0.72893092
   0.69848430  0.99630076  0.20544748
   0.95819751  0.40444007  0.84399462
   0.34307206  0.67784644  0.17029868
   0.69758481  0.34180393  0.47262585
   0.98000996  0.69018399  0.49027891
   0.36139895  0.93439140  0.45863605
   0.80775595  0.36859967  0.33135534
Co–organic framework                  
           1
    25.628938    1.330104   -0.309392
    13.978571   21.994309   -0.305577
    -0.083501   -0.046419    6.769897
   O    C    H    Co   Li
  50  65  16  18   1
Direct configuration=     2
   0.03829949  0.26796697  0.30124445
   0.01286990  0.31071729  0.91758965
   0.09349505  0.26603393  0.71018935
   0.65906693  0.08089967  0.34103437
   0.63739397  0.05414381  0.98174776
   0.59789254  0.12474233  0.74127723
   0.01767050  0.40354301  0.64793051
   0.31290135  0.63604586  0.32981476
   0.35755861  0.60832745  0.96268022
   0.32712299  0.55901899  0.77109615
   0.57395206  0.02330850  0.65932546
   0.29321977  0.02250508  0.36223016
   0.21808950  0.06941422  0.59287557
   0.26900263  0.07016619  0.00295098
   0.65444909  0.31125924  0.32618148
   0.65971416  0.26094114  0.59957809
   0.02781873  0.62698762  0.71412092
   0.05404764  0.55587681  0.94381410
   0.57503121  0.31217031  0.03288515
   0.06851867  0.65502285  0.38481087
   0.11396752  0.67814700  0.62243705
   0.36871184  0.98131192  0.69790399
   0.40720411  0.01081541  0.93903419
   0.11785817  0.62395893  0.02184521
   0.69735329  0.97975779  0.64384653
   0.76915703  0.94017030  0.40254217
   0.72776220  0.93124668  0.99711244
   0.38669530  0.66985804  0.50477712
   0.31319727  0.75424798  0.34026058
   0.99629959  0.38320050  0.26857374
   0.96403189  0.45838839  0.04698525
   0.36313736  0.70213097  0.92618266
   0.94136290  0.37078934  0.58780052
   0.89647520  0.34394622  0.35835956
   0.62276769  0.00209114  0.30579799
   0.59178010  0.96697087  0.05847243
   0.88344072  0.40590588  0.95887258
   0.96698915  0.75180886  0.69194835
   0.99339826  0.70003328  0.04961488
   0.91974310  0.74746993  0.28429108
   0.30967413  0.92730693  0.65716991
   0.33185511  0.94857955  0.02485382
   0.36773746  0.87487664  0.25235635
   0.00032864  0.60960389  0.35014433
   0.76293034  0.29598575  0.68218884
   0.67567615  0.36972565  0.98883426
   0.73372661  0.36607021  0.25403673
   0.42068097  0.95480171  0.33811726
   0.70784365  0.53340458  0.73072242
   0.74970933  0.46591822  0.45496441
   0.09327912  0.22097866  0.22533979
   0.13668049  0.17046992  0.34630276
   0.07135794  0.26755091  0.87578160
   0.11165943  0.21827672  0.02385811
   0.63967042  0.13621572  0.26012343
   0.64641638  0.17792371  0.37188598
   0.61589942  0.10922243  0.91944623
   0.61495670  0.15368014  0.06253875
   0.01377271  0.45280605  0.56709814
   0.02535017  0.48921773  0.69362915
   0.26516580  0.63161907  0.25746822
   0.21288971  0.64979140  0.37429182
   0.32134327  0.58886758  0.93282607
   0.26951278  0.60627733  0.06550376
   0.53834097  0.00546574  0.57645521
   0.49455344  0.00548765  0.69604110
   0.23748653  0.06780806  0.42086340
   0.19578358  0.11937144  0.28019615
   0.21378075  0.11727050  0.08098582
   0.17077612  0.16732254  0.95871286
   0.64744041  0.27100742  0.41494389
   0.62902622  0.23577365  0.29782259
   0.03536830  0.57626208  0.77126929
   0.02104762  0.54197097  0.62743174
   0.59825133  0.25562728  0.10805478
   0.59266463  0.21317864  0.99543086
   0.11267643  0.66085646  0.44557872
   0.16392604  0.64501589  0.30580071
   0.40806980  0.99382670  0.76197073
   0.45483072  0.98859835  0.62278046
   0.16508693  0.62430141  0.10682200
   0.21939153  0.60366851  0.99370046
   0.75400839  0.93902906  0.57860617
   0.80099061  0.89018064  0.71799352
   0.78534993  0.88934545  0.91831940
   0.83252682  0.84159131  0.03950290
   0.34437253  0.73165445  0.49700710
   0.33906437  0.77300038  0.65989713
   0.98497015  0.43703158  0.21909492
   0.99807147  0.47104167  0.36585243
   0.35328157  0.75582614  0.86289243
   0.35494879  0.79737172  0.99340088
   0.90529611  0.35358469  0.54218045
   0.86806761  0.34912569  0.69461782
   0.58782442  0.98496284  0.23677963
   0.54241840  0.98699495  0.37411550
   0.85371635  0.38190936  0.87992204
   0.80249957  0.38971503  0.98536873
   0.90922374  0.79573888  0.76999017
   0.86217834  0.84404212  0.64928749
   0.93763663  0.74520652  0.10987240
   0.89333973  0.79515828  0.97041954
   0.32341959  0.87344076  0.73155261
   0.32220817  0.83157134  0.60079721
   0.34734010  0.89456242  0.07873152
   0.34103701  0.85509934  0.93183341
   0.00488955  0.56027210  0.42558594
   0.99366577  0.52392260  0.30052877
   0.78904053  0.32542091  0.75223094
   0.83807129  0.31922051  0.64334937
   0.72373645  0.36677434  0.06515782
   0.77087852  0.36200304  0.93033097
   0.45851491  0.97047283  0.42115434
   0.50300990  0.96952498  0.30157096
   0.72899247  0.49946449  0.59393250
   0.12351867  0.17195119  0.49981255
   0.66843283  0.16357935  0.51864909
   0.03774828  0.47572909  0.84754579
   0.20953370  0.66845542  0.52390084
   0.49111740  0.01954872  0.85059074
   0.18435392  0.16585732  0.80543222
   0.57306182  0.22632168  0.84547115
   0.22153548  0.58676711  0.84316908
   0.82066810  0.84076388  0.19274144
   0.36715353  0.78493639  0.14823875
   0.78472191  0.42393585  0.10748793
   0.87348969  0.84526997  0.49551585
   0.31021094  0.84446633  0.44624254
   0.98151901  0.53735048  0.14603442
   0.85443297  0.28825886  0.51249734
   0.50653508  0.95556210  0.14649429
   0.34279591  0.58999929  0.55623533
   0.03715264  0.32765278  0.49961757
   0.61955648  0.05787205  0.53560847
   0.05294577  0.68314087  0.81945028
   0.35439048  0.00644900  0.13942610
   0.28133030  0.00957834  0.79542621
   0.62192007  0.34255485  0.03532634
   0.68386708  0.30545212  0.76000752
   0.05429465  0.61144486  0.15165158
   0.64096309  0.98160453  0.86388220
   0.95770000  0.34010806  0.15052793
   0.37986095  0.63256151  0.72936806
   0.69850116  0.99627933  0.20535607
   0.95831341  0.40436020  0.84341375
   0.34307025  0.67771466  0.17049475
   0.69732210  0.34172234  0.47321246
   0.98056021  0.68968171  0.48950885
   0.36114085  0.93516857  0.45963200
   0.80778213  0.36858663  0.33160743
Co–organic framework                  
           1
    25.618445    1.322337   -0.305238
    13.965991   21.997045   -0.305521
    -0.082326   -0.047114    6.769339
   O    C    H    Co   Li
  50  65  16  18   1
Direct configuration=     3
   0.03826572  0.26805668  0.30143078
   0.01283891  0.31075189  0.91767962
   0.09356211  0.26602968  0.71017846
   0.65907178  0.08089992  0.34105451
   0.63740435  0.05413329  0.98177556
   0.59789615  0.12474025  0.74128707
   0.01766607  0.40359245  0.64748809
   0.31290495  0.63607485  0.32958514
   0.35755677  0.60834950  0.96272714
   0.32711636  0.55903062  0.77110075
   0.57395009  0.02330885  0.65930793
   0.29320786  0.02250553  0.36219453
   0.21810035  0.06937943  0.59296562
   0.26904227  0.07014983  0.00287701
   0.65445263  0.31124773  0.32621226
   0.65972278  0.26093602  0.59956563
   0.02782884  0.62697649  0.71407721
   0.05407966  0.55587521  0.94402853
   0.57502101  0.31212995  0.03282145
   0.06854383  0.65500045  0.38472356
   0.11396187  0.67814243  0.62243884
   0.36872942  0.98131803  0.69786576
   0.40718914  0.01083523  0.93917164
   0.11783339  0.62396107  0.02184579
   0.69735365  0.97975598  0.64383966
   0.76915691  0.94016526  0.40252517
   0.72775699  0.93125382  0.99712896
   0.38666453  0.66990576  0.50476588
   0.31319736  0.75423719  0.34003413
   0.99624429  0.38330823  0.26842474
   0.96402220  0.45839049  0.04688116
   0.36314048  0.70211759  0.92629603
   0.94134184  0.37079980  0.58783488
   0.89646442  0.34395195  0.35839755
   0.62278295  0.00209278  0.30582444
   0.59177424  0.96696908  0.05845900
   0.88344844  0.40590382  0.95888560
   0.96697362  0.75183931  0.69197763
   0.99337519  0.70004545  0.04953903
   0.91973357  0.74745779  0.28441301
   0.30967341  0.92731629  0.65718423
   0.33184855  0.94858720  0.02479570
   0.36774036  0.87488789  0.25243277
   0.00031394  0.60965805  0.35006524
   0.76288478  0.29601584  0.68219398
   0.67566277  0.36975671  0.98874528
   0.73372007  0.36605195  0.25404131
   0.42071614  0.95479797  0.33814046
   0.70784613  0.53339996  0.73071324
   0.74971380  0.46591161  0.45493902
   0.09329712  0.22096890  0.22520460
   0.13668843  0.17047964  0.34639770
   0.07134912  0.26752315  0.87600417
   0.11164306  0.21826776  0.02379822
   0.63966816  0.13621927  0.26011544
   0.64642318  0.17791721  0.37189371
   0.61590066  0.10922610  0.91942905
   0.61495878  0.15367366  0.06256548
   0.01378412  0.45283027  0.56734657
   0.02534279  0.48922714  0.69360004
   0.26516695  0.63160221  0.25743720
   0.21287448  0.64981190  0.37432960
   0.32133191  0.58886236  0.93279005
   0.26948931  0.60629555  0.06559594
   0.53835085  0.00546628  0.57646514
   0.49454831  0.00548382  0.69600340
   0.23748866  0.06781596  0.42081277
   0.19579352  0.11935153  0.28027924
   0.21377870  0.11726282  0.08089582
   0.17080068  0.16731281  0.95864039
   0.64743756  0.27101933  0.41496936
   0.62902486  0.23576944  0.29782837
   0.03534428  0.57628479  0.77117901
   0.02104584  0.54197652  0.62745990
   0.59824163  0.25565529  0.10805997
   0.59266313  0.21318490  0.99541014
   0.11267623  0.66085495  0.44563165
   0.16390406  0.64501226  0.30581891
   0.40806527  0.99381242  0.76190848
   0.45482717  0.98860399  0.62289604
   0.16510849  0.62431259  0.10678645
   0.21939257  0.60366952  0.99371897
   0.75400286  0.93903794  0.57858801
   0.80099334  0.89018560  0.71797517
   0.78535093  0.88934322  0.91835820
   0.83251237  0.84159853  0.03951913
   0.34443795  0.73157557  0.49715140
   0.33906178  0.77299092  0.65993363
   0.98497146  0.43699237  0.21898990
   0.99806677  0.47104866  0.36583077
   0.35328336  0.75582414  0.86288529
   0.35494068  0.79738194  0.99340101
   0.90530664  0.35357103  0.54214747
   0.86807283  0.34911564  0.69460318
   0.58782192  0.98495788  0.23676093
   0.54241404  0.98698924  0.37407911
   0.85372030  0.38190196  0.87996556
   0.80251142  0.38971314  0.98535121
   0.90923002  0.79572029  0.76999746
   0.86217909  0.84403660  0.64925235
   0.93765481  0.74519841  0.10980165
   0.89333384  0.79516181  0.97041076
   0.32342539  0.87343909  0.73145996
   0.32220907  0.83157486  0.60082120
   0.34732912  0.89455955  0.07869542
   0.34104944  0.85509345  0.93189550
   0.00490553  0.56023740  0.42559337
   0.99366125  0.52392469  0.30052977
   0.78903609  0.32541483  0.75219396
   0.83807474  0.31921997  0.64335887
   0.72373730  0.36676954  0.06515781
   0.77086612  0.36200409  0.93035751
   0.45849779  0.97047758  0.42106664
   0.50302444  0.96952205  0.30155741
   0.72898759  0.49947080  0.59396425
   0.12351345  0.17195407  0.49985258
   0.66843530  0.16357989  0.51861997
   0.03775279  0.47572397  0.84757862
   0.20953389  0.66845255  0.52388211
   0.49111491  0.01954862  0.85059507
   0.18435317  0.16585706  0.80543914
   0.57307031  0.22631306  0.84548767
   0.22154706  0.58676847  0.84316729
   0.82066300  0.84076885  0.19273493
   0.36715158  0.78493846  0.14823553
   0.78472517  0.42393020  0.10748191
   0.87348434  0.84527413  0.49552977
   0.31020797  0.84446487  0.44621794
   0.98152233  0.53734866  0.14602989
   0.85444031  0.28825858  0.51250811
   0.50653671  0.95555895  0.14647366
   0.34280215  0.59000448  0.55650332
   0.03722226  0.32738064  0.49995747
   0.61955847  0.05787025  0.53558059
   0.05302661  0.68315330  0.81928154
   0.35444776  0.00647393  0.13954811
   0.28117321  0.00970436  0.79551684
   0.62201155  0.34256116  0.03540352
   0.68382914  0.30545494  0.76016855
   0.05435070  0.61129026  0.15166252
   0.64096460  0.98160288  0.86389683
   0.95763993  0.34013376  0.15023385
   0.37983851  0.63256819  0.72930204
   0.69849862  0.99628257  0.20536984
   0.95829593  0.40437228  0.84350130
   0.34307043  0.67773457  0.17046518
   0.69736160  0.34173460  0.47312413
   0.98047705  0.68975776  0.48962467
   0.36118013  0.93505110  0.45948193
   0.80777816  0.36858862  0.33156939
Co–organic framework                  
           1
    25.595843    1.305605   -0.296291
    13.938894   22.002939   -0.305400
    -0.079796   -0.048612    6.768138
   O    C    H    Co   Li
  50  65  16  18   1
Direct configuration=     4
   0.03819307  0.26824987  0.30183222
   0.01277219  0.31082640  0.91787347
   0.09370656  0.26602059  0.71015491
   0.65908222  0.08090048  0.34109790
   0.63742672  0.05411063  0.98183542
   0.59790394  0.12473578  0.74130827
   0.01765663  0.40369888  0.64653505
   0.31291277  0.63613727  0.32909050
   0.35755284  0.60839700  0.96282823
   0.32710209  0.55905568  0.77111068
   0.57394585  0.02330961  0.65927017
   0.29318221  0.02250650  0.36211777
   0.21812367  0.06930452  0.59315959
   0.26912767  0.07011463  0.00271760
   0.65446025  0.31122296  0.32627856
   0.65974133  0.26092501  0.59953879
   0.02785060  0.62695254  0.71398304
   0.05414862  0.55587180  0.94449042
   0.57499898  0.31204299  0.03268423
   0.06859803  0.65495223  0.38453546
   0.11394970  0.67813259  0.62244273
   0.36876730  0.98133120  0.69778336
   0.40715691  0.01087792  0.93946777
   0.11777999  0.62396567  0.02184707
   0.69735442  0.97975209  0.64382487
   0.76915666  0.94015439  0.40248854
   0.72774579  0.93126921  0.99716454
   0.38659831  0.67000852  0.50474172
   0.31319759  0.75421392  0.33954632
   0.99612531  0.38354018  0.26810385
   0.96400132  0.45839498  0.04665694
   0.36314718  0.70208880  0.92654023
   0.94129646  0.37082230  0.58790892
   0.89644118  0.34396430  0.35847940
   0.62281583  0.00209631  0.30588138
   0.59176160  0.96696524  0.05843008
   0.88346507  0.40589939  0.95891362
   0.96694018  0.75190489  0.69204073
   0.99332553  0.70007163  0.04937568
   0.91971300  0.74743165  0.28467570
   0.30967185  0.92733645  0.65721507
   0.33183444  0.94860368  0.02467050
   0.36774661  0.87491213  0.25259737
   0.00028235  0.60977468  0.34989488
   0.76278665  0.29608061  0.68220510
   0.67563399  0.36982359  0.98855361
   0.73370595  0.36601261  0.25405119
   0.42079190  0.95478993  0.33819038
   0.70785147  0.53339000  0.73069345
   0.74972342  0.46589737  0.45488433
   0.09333590  0.22094788  0.22491334
   0.13670555  0.17050058  0.34660221
   0.07133006  0.26746336  0.87648363
   0.11160779  0.21824845  0.02366924
   0.63966330  0.13622692  0.26009822
   0.64643782  0.17790322  0.37191035
   0.61590335  0.10923400  0.91939205
   0.61496324  0.15365972  0.06262304
   0.01380869  0.45288248  0.56788171
   0.02532690  0.48924741  0.69353735
   0.26516941  0.63156588  0.25737036
   0.21284167  0.64985603  0.37441101
   0.32130743  0.58885112  0.93271247
   0.26943876  0.60633477  0.06579454
   0.53837212  0.00546744  0.57648651
   0.49453725  0.00547555  0.69592220
   0.23749328  0.06783298  0.42070369
   0.19581490  0.11930866  0.28045822
   0.21377429  0.11724628  0.08070196
   0.17085359  0.16729184  0.95848426
   0.64743143  0.27104499  0.41502422
   0.62902191  0.23576036  0.29784081
   0.03529255  0.57633368  0.77098456
   0.02104202  0.54198847  0.62752059
   0.59822077  0.25571562  0.10807117
   0.59265991  0.21319838  0.99536550
   0.11267580  0.66085170  0.44574568
   0.16385671  0.64500441  0.30585814
   0.40805552  0.99378164  0.76177439
   0.45481954  0.98861614  0.62314502
   0.16515496  0.62433669  0.10670985
   0.21939479  0.60367169  0.99375882
   0.75399095  0.93905707  0.57854890
   0.80099924  0.89019627  0.71793564
   0.78535307  0.88933842  0.91844179
   0.83248124  0.84161410  0.03955411
   0.34457879  0.73140575  0.49746216
   0.33905618  0.77297057  0.66001228
   0.98497425  0.43690792  0.21876366
   0.99805665  0.47106370  0.36578411
   0.35328721  0.75581984  0.86286992
   0.35492324  0.79740394  0.99340132
   0.90532931  0.35354162  0.54207641
   0.86808407  0.34909399  0.69457163
   0.58781654  0.98494721  0.23672065
   0.54240464  0.98697695  0.37400071
   0.85372880  0.38188605  0.88005931
   0.80253694  0.38970907  0.98531344
   0.90924351  0.79568024  0.77001317
   0.86218071  0.84402470  0.64917665
   0.93769397  0.74518095  0.10964922
   0.89332117  0.79516942  0.97039184
   0.32343788  0.87343549  0.73126038
   0.32221101  0.83158245  0.60087287
   0.34730548  0.89455335  0.07861766
   0.34107622  0.85508078  0.93202924
   0.00493992  0.56016269  0.42560936
   0.99365151  0.52392917  0.30053192
   0.78902652  0.32540172  0.75211430
   0.83808216  0.31921880  0.64337934
   0.72373913  0.36675919  0.06515778
   0.77083941  0.36200635  0.93041472
   0.45846093  0.97048780  0.42087772
   0.50305578  0.96951575  0.30152818
   0.72897707  0.49948439  0.59403265
   0.12350220  0.17196029  0.49993880
   0.66844063  0.16358103  0.51855723
   0.03776249  0.47571294  0.84764933
   0.20953429  0.66844635  0.52384175
   0.49110954  0.01954841  0.85060439
   0.18435154  0.16585649  0.80545405
   0.57308861  0.22629451  0.84552327
   0.22157201  0.58677139  0.84316342
   0.82065202  0.84077955  0.19272091
   0.36714737  0.78494292  0.14822861
   0.78473220  0.42391802  0.10746893
   0.87347284  0.84528307  0.49555977
   0.31020158  0.84446173  0.44616495
   0.98152948  0.53734475  0.14602013
   0.85445612  0.28825798  0.51253130
   0.50654021  0.95555217  0.14642922
   0.34281555  0.59001569  0.55708060
   0.03737186  0.32679463  0.50068958
   0.61956275  0.05786636  0.53552053
   0.05320080  0.68318014  0.81891793
   0.35457118  0.00652767  0.13981087
   0.28083490  0.00997565  0.79571226
   0.62220863  0.34257481  0.03556967
   0.68374738  0.30546101  0.76051547
   0.05447126  0.61095736  0.15168602
   0.64096785  0.98159933  0.86392835
   0.95751058  0.34018903  0.14960043
   0.37979017  0.63258254  0.72915984
   0.69849313  0.99628955  0.20539953
   0.95825829  0.40439831  0.84368992
   0.34307086  0.67777746  0.17040146
   0.69744674  0.34176102  0.47293380
   0.98029796  0.68992147  0.48987429
   0.36126463  0.93479814  0.45915861
   0.80776962  0.36859289  0.33148745
Co–organic framework                  
           1
    25.576227    1.291085   -0.288526
    13.915377   22.008053   -0.305295
    -0.077599   -0.049911    6.767096
   O    C    H    Co   Li
  50  65  16  18   1
Direct configuration=     5
   0.03813014  0.26841746  0.30218076
   0.01271430  0.31089102  0.91804182
   0.09383199  0.26601278  0.71013432
   0.65909128  0.08090098  0.34113555
   0.63744611  0.05409100  0.98188736
   0.59791069  0.12473191  0.74132666
   0.01764868  0.40379115  0.64570781
   0.31291969  0.63619140  0.32866113
   0.35754946  0.60843821  0.96291598
   0.32708973  0.55907741  0.77111931
   0.57394217  0.02331027  0.65923739
   0.29315995  0.02250732  0.36205118
   0.21814381  0.06923956  0.59332794
   0.26920180  0.07008412  0.00257914
   0.65446683  0.31120148  0.32633610
   0.65975743  0.26091546  0.59951547
   0.02786948  0.62693176  0.71390127
   0.05420843  0.55586892  0.94489128
   0.57497978  0.31196754  0.03256515
   0.06864506  0.65491041  0.38437212
   0.11393912  0.67812404  0.62244611
   0.36880022  0.98134264  0.69771180
   0.40712893  0.01091495  0.93972484
   0.11773363  0.62396963  0.02184824
   0.69735508  0.97974872  0.64381203
   0.76915643  0.94014497  0.40245675
   0.72773608  0.93128255  0.99719543
   0.38654092  0.67009762  0.50472082
   0.31319782  0.75419371  0.33912288
   0.99602228  0.38374132  0.26782545
   0.96398323  0.45839885  0.04646233
   0.36315293  0.70206384  0.92675220
   0.94125707  0.37084180  0.58797324
   0.89642100  0.34397500  0.35855047
   0.62284438  0.00209940  0.30593077
   0.59175063  0.96696190  0.05840499
   0.88347951  0.40589555  0.95893793
   0.96691121  0.75196177  0.69209553
   0.99328245  0.70009430  0.04923394
   0.91969508  0.74740898  0.28490374
   0.30967051  0.92735395  0.65724184
   0.33182223  0.94861796  0.02456184
   0.36775204  0.87493317  0.25274025
   0.00025507  0.60987583  0.34974704
   0.76270152  0.29613673  0.68221486
   0.67560910  0.36988158  0.98838727
   0.73369365  0.36597848  0.25405979
   0.42085767  0.95478300  0.33823363
   0.70785609  0.53338136  0.73067627
   0.74973176  0.46588502  0.45483684
   0.09336959  0.22092965  0.22466048
   0.13672041  0.17051877  0.34677971
   0.07131339  0.26741152  0.87689983
   0.11157717  0.21823166  0.02355732
   0.63965909  0.13623355  0.26008329
   0.64645051  0.17789109  0.37192478
   0.61590569  0.10924086  0.91935993
   0.61496709  0.15364763  0.06267301
   0.01383001  0.45292782  0.56834619
   0.02531313  0.48926497  0.69348294
   0.26517152  0.63153437  0.25731235
   0.21281322  0.64989430  0.37448171
   0.32128618  0.58884135  0.93264515
   0.26939489  0.60636878  0.06596698
   0.53839059  0.00546847  0.57650503
   0.49452764  0.00546837  0.69585173
   0.23749733  0.06784774  0.42060901
   0.19583339  0.11927150  0.28061355
   0.21377046  0.11723191  0.08053369
   0.17089954  0.16727368  0.95834867
   0.64742614  0.27106724  0.41507185
   0.62901934  0.23575248  0.29785162
   0.03524772  0.57637605  0.77081583
   0.02103871  0.54199884  0.62757327
   0.59820273  0.25576795  0.10808091
   0.59265713  0.21321006  0.99532675
   0.11267541  0.66084888  0.44584466
   0.16381558  0.64499757  0.30589224
   0.40804703  0.99375493  0.76165801
   0.45481289  0.98862669  0.62336116
   0.16519534  0.62435761  0.10664330
   0.21939671  0.60367359  0.99379342
   0.75398063  0.93907365  0.57851496
   0.80100437  0.89020553  0.71790131
   0.78535492  0.88933426  0.91851434
   0.83245423  0.84162758  0.03958451
   0.34470086  0.73125853  0.49773175
   0.33905129  0.77295291  0.66008055
   0.98497660  0.43683465  0.21856729
   0.99804788  0.47107674  0.36574361
   0.35329055  0.75581611  0.86285657
   0.35490812  0.79742302  0.99340161
   0.90534898  0.35351611  0.54201470
   0.86809381  0.34907522  0.69454423
   0.58781187  0.98493795  0.23668569
   0.54239648  0.98696627  0.37393266
   0.85373615  0.38187225  0.88014067
   0.80255911  0.38970556  0.98528062
   0.90925518  0.79564551  0.77002679
   0.86218211  0.84401437  0.64911093
   0.93772797  0.74516581  0.10951686
   0.89331017  0.79517601  0.97037544
   0.32344876  0.87343237  0.73108713
   0.32221269  0.83158904  0.60091773
   0.34728496  0.89454796  0.07855020
   0.34109943  0.85506981  0.93214530
   0.00496971  0.56009790  0.42562320
   0.99364306  0.52393306  0.30053380
   0.78901820  0.32539033  0.75204515
   0.83808861  0.31921780  0.64339710
   0.72374072  0.36675022  0.06515776
   0.77081622  0.36200830  0.93046440
   0.45842895  0.97049663  0.42071377
   0.50308298  0.96951030  0.30150278
   0.72896795  0.49949618  0.59409203
   0.12349243  0.17196567  0.50001366
   0.66844526  0.16358203  0.51850277
   0.03777089  0.47570339  0.84771070
   0.20953465  0.66844097  0.52380671
   0.49110488  0.01954822  0.85061249
   0.18435013  0.16585599  0.80546700
   0.57310447  0.22627843  0.84555414
   0.22159367  0.58677394  0.84316004
   0.82064250  0.84078883  0.19270875
   0.36714373  0.78494679  0.14822260
   0.78473830  0.42390746  0.10745766
   0.87346285  0.84529082  0.49558582
   0.31019603  0.84445899  0.44611896
   0.98153569  0.53734136  0.14601166
   0.85446984  0.28825747  0.51255140
   0.50654324  0.95554629  0.14639064
   0.34282714  0.59002546  0.55758169
   0.03750104  0.32628637  0.50132489
   0.61956647  0.05786298  0.53546840
   0.05335213  0.68320350  0.81860212
   0.35467836  0.00657440  0.14003882
   0.28054142  0.01021082  0.79588227
   0.62237975  0.34258680  0.03571367
   0.68367636  0.30546624  0.76081670
   0.05457557  0.61066862  0.15170628
   0.64097067  0.98159626  0.86395571
   0.95739840  0.34023687  0.14905076
   0.37974823  0.63259496  0.72903645
   0.69848837  0.99629560  0.20542530
   0.95822561  0.40442087  0.84385369
   0.34307128  0.67781467  0.17034616
   0.69752072  0.34178398  0.47276850
   0.98014260  0.69006341  0.49009116
   0.36133777  0.93457870  0.45887786
   0.80776222  0.36859659  0.33141633
Co–organic framework                  
           1
    25.561085    1.308228   -0.292002
    13.923275   21.981283   -0.305949
    -0.078554   -0.049509    6.764699
   O    C    H    Co   Li
  50  65  16  18   1
Direct configuration=     6
   0.03784442  0.26857599  0.30250727