  154  154 1000    2
  0.2239419E+02  0.2390046E-08  0.2576472E-08  0.6828734E-09  0.5000000E-15
  1.000000000000000E-004
  CAR 
 Co–organic framework                  
    756      1    486
