  154  154 1000    2
  0.2449653E+02  0.2549719E-08  0.2575457E-08  0.6829467E-09  0.5000000E-15
  1.000000000000000E-004
  CAR 
 Co–organic framework                  
    756      1    486
