 running on   24 total cores
 distrk:  each k-point on   24 cores,    1 groups
 distr:  one band on    4 cores,    6 groups
 using from now: INCAR     
 vasp.5.4.4.18Apr17-6-g9f103f2a35 (build May 21 2019 18:55:53) complex          
  
 POSCAR found type information on POSCAR  O  C  H  Co Li
 POSCAR found :  5 types and     154 ions
 LDA part: xc-table for Pade appr. of Perdew
 POSCAR found type information on POSCAR  O  C  H  Co Li
 POSCAR found :  5 types and     154 ions
 POSCAR, INCAR and KPOINTS ok, starting setup
 FFT: planning ...
 WAVECAR not read
 WARNING: random wavefunctions but no delay for mixing, default for NELMDL
 entering main loop
       N       E                     dE             d eps       ncg     rms          rms(c)
DAV:   1     0.891468224121E+04    0.89147E+04   -0.33588E+05  1944   0.139E+03
DAV:   2     0.837924848504E+03   -0.80768E+04   -0.72749E+04  2220   0.453E+02
DAV:   3    -0.113536197057E+04   -0.19733E+04   -0.18715E+04  3216   0.224E+02
DAV:   4    -0.128237433273E+04   -0.14701E+03   -0.13733E+03  3060   0.700E+01
DAV:   5    -0.128994820732E+04   -0.75739E+01   -0.70906E+01  3192   0.147E+01    0.170E+02
RMM:   6    -0.174070673666E+04   -0.45076E+03   -0.35141E+03  2497   0.145E+02    0.547E+02
RMM:   7    -0.155985406683E+04    0.18085E+03   -0.22803E+02  1946   0.435E+01    0.356E+02
RMM:   8    -0.108098314958E+04    0.47887E+03   -0.53198E+02  2053   0.507E+01    0.117E+02
RMM:   9    -0.132063283119E+04   -0.23965E+03   -0.18232E+02  2074   0.304E+01    0.212E+02
RMM:  10    -0.118089328348E+04    0.13974E+03   -0.69145E+01  2039   0.201E+01    0.144E+02
RMM:  11    -0.113614051252E+04    0.44753E+02   -0.11541E+02  1990   0.244E+01    0.146E+02
RMM:  12    -0.112858023123E+04    0.75603E+01   -0.79267E+01  2096   0.187E+01    0.128E+02
RMM:  13    -0.103933474416E+04    0.89245E+02   -0.54344E+01  2056   0.166E+01    0.821E+01
RMM:  14    -0.106773168319E+04   -0.28397E+02   -0.44635E+01  1996   0.157E+01    0.112E+02
RMM:  15    -0.104714219096E+04    0.20589E+02   -0.38418E+01  2037   0.140E+01    0.890E+01
RMM:  16    -0.102787093778E+04    0.19271E+02   -0.24529E+01  2000   0.111E+01    0.855E+01
RMM:  17    -0.101623245538E+04    0.11638E+02   -0.13590E+01  2094   0.763E+00    0.673E+01
RMM:  18    -0.101154415719E+04    0.46883E+01   -0.83405E+00  2088   0.616E+00    0.556E+01
RMM:  19    -0.101301061156E+04   -0.14665E+01   -0.71923E+00  2038   0.554E+00    0.469E+01
RMM:  20    -0.101663033736E+04   -0.36197E+01   -0.41966E+00  2048   0.437E+00    0.570E+01
RMM:  21    -0.101211123195E+04    0.45191E+01   -0.23082E+00  2106   0.322E+00    0.296E+01
RMM:  22    -0.101170443211E+04    0.40680E+00   -0.89280E-01  2047   0.197E+00    0.315E+01
RMM:  23    -0.101323006489E+04   -0.15256E+01   -0.61453E-01  2127   0.146E+00    0.259E+01
RMM:  24    -0.101412802576E+04   -0.89796E+00   -0.29233E-01  2045   0.111E+00    0.245E+01
RMM:  25    -0.101800353843E+04   -0.38755E+01   -0.58568E-01  2125   0.138E+00    0.243E+01
RMM:  26    -0.102002861767E+04   -0.20251E+01   -0.53724E-01  2059   0.146E+00    0.235E+01
RMM:  27    -0.102386127307E+04   -0.38327E+01   -0.10299E+00  2013   0.201E+00    0.287E+01
RMM:  28    -0.102561332677E+04   -0.17521E+01   -0.76665E-01  2135   0.169E+00    0.214E+01
RMM:  29    -0.103065609586E+04   -0.50428E+01   -0.22029E+00  1995   0.294E+00    0.251E+01
RMM:  30    -0.103597087592E+04   -0.53148E+01   -0.27760E+00  2011   0.318E+00    0.282E+01
RMM:  31    -0.103738447735E+04   -0.14136E+01   -0.11833E+00  2147   0.220E+00    0.195E+01
RMM:  32    -0.103892960771E+04   -0.15451E+01   -0.60320E-01  2138   0.128E+00    0.162E+01
RMM:  33    -0.104039016752E+04   -0.14606E+01   -0.46928E-01  2135   0.130E+00    0.170E+01
RMM:  34    -0.104244953957E+04   -0.20594E+01   -0.43544E-01  2064   0.118E+00    0.154E+01
RMM:  35    -0.104489286521E+04   -0.24433E+01   -0.63802E-01  2097   0.141E+00    0.160E+01
RMM:  36    -0.104525582030E+04   -0.36296E+00   -0.21653E-01  2183   0.922E-01    0.134E+01
RMM:  37    -0.104516557598E+04    0.90244E-01   -0.44860E-02  2423   0.344E-01    0.135E+01
RMM:  38    -0.104523665382E+04   -0.71078E-01   -0.12337E-02  2276   0.188E-01    0.136E+01
RMM:  39    -0.104614048360E+04   -0.90383E+00   -0.74264E-02  2072   0.512E-01    0.143E+01
RMM:  40    -0.104668124020E+04   -0.54076E+00   -0.54105E-02  2320   0.444E-01    0.145E+01
RMM:  41    -0.104729398998E+04   -0.61275E+00   -0.14665E-01  2147   0.695E-01    0.140E+01
RMM:  42    -0.104837126186E+04   -0.10773E+01   -0.15007E-01  2032   0.739E-01    0.137E+01
RMM:  43    -0.104901000816E+04   -0.63875E+00   -0.92002E-02  2349   0.479E-01    0.128E+01
RMM:  44    -0.105068079737E+04   -0.16708E+01   -0.29331E-01  2051   0.832E-01    0.113E+01
RMM:  45    -0.105217008812E+04   -0.14893E+01   -0.34821E-01  2098   0.996E-01    0.119E+01
RMM:  46    -0.105226036235E+04   -0.90274E-01   -0.72033E-02  2374   0.427E-01    0.118E+01
RMM:  47    -0.105226788660E+04   -0.75243E-02   -0.17290E-02  2420   0.191E-01    0.114E+01
RMM:  48    -0.105231997051E+04   -0.52084E-01   -0.12546E-02  2131   0.207E-01    0.110E+01
RMM:  49    -0.105233618083E+04   -0.16210E-01   -0.63351E-02  2035   0.398E-01    0.112E+01
RMM:  50    -0.105280027221E+04   -0.46409E+00   -0.16471E-01  2148   0.657E-01    0.116E+01
RMM:  51    -0.105399093493E+04   -0.11907E+01   -0.58086E-01  2071   0.114E+00    0.170E+01
RMM:  52    -0.105406949022E+04   -0.78555E-01   -0.77042E-02  2173   0.518E-01    0.169E+01
RMM:  53    -0.105414050791E+04   -0.71018E-01   -0.31174E-02  2526   0.218E-01    0.167E+01
RMM:  54    -0.105441179767E+04   -0.27129E+00   -0.61555E-02  2097   0.483E-01    0.154E+01
RMM:  55    -0.105471298837E+04   -0.30119E+00   -0.55114E-02  2328   0.436E-01    0.160E+01
RMM:  56    -0.105482555148E+04   -0.11256E+00   -0.13152E-01  2129   0.654E-01    0.159E+01
RMM:  57    -0.105482957829E+04   -0.40268E-02   -0.39441E-02  2004   0.432E-01    0.158E+01
RMM:  58    -0.105485813955E+04   -0.28561E-01   -0.20929E-02  2446   0.233E-01    0.162E+01
RMM:  59    -0.105488847608E+04   -0.30337E-01   -0.68064E-03  2220   0.143E-01    0.162E+01
RMM:  60    -0.105489824042E+04   -0.97643E-02   -0.12344E-02  2271   0.172E-01    0.152E+01
RMM:  61    -0.105502973058E+04   -0.13149E+00   -0.11883E-01  2137   0.677E-01    0.152E+01
RMM:  62    -0.105499670156E+04    0.33029E-01   -0.33991E-02  2081   0.413E-01    0.148E+01
RMM:  63    -0.105510255430E+04   -0.10585E+00   -0.16955E-02  2366   0.229E-01    0.147E+01
RMM:  64    -0.105514192877E+04   -0.39374E-01   -0.10049E-02  2283   0.178E-01    0.148E+01
RMM:  65    -0.105519616197E+04   -0.54233E-01   -0.18018E-02  2243   0.244E-01    0.153E+01
RMM:  66    -0.105590022844E+04   -0.70407E+00   -0.19732E-01  2155   0.861E-01    0.232E+01
RMM:  67    -0.105551780195E+04    0.38243E+00   -0.74281E-02  2126   0.590E-01    0.209E+01
RMM:  68    -0.105542159982E+04    0.96202E-01   -0.19349E-02  2321   0.262E-01    0.206E+01
RMM:  69    -0.105542123360E+04    0.36621E-03   -0.62414E-03  2458   0.125E-01    0.206E+01
RMM:  70    -0.105535458314E+04    0.66650E-01   -0.47618E-03  2211   0.132E-01    0.204E+01
RMM:  71    -0.105577440980E+04   -0.41983E+00   -0.10713E-01  2077   0.638E-01    0.226E+01
RMM:  72    -0.105564677469E+04    0.12764E+00   -0.30269E-02  2124   0.374E-01    0.217E+01
RMM:  73    -0.105552051099E+04    0.12626E+00   -0.22205E-02  2196   0.301E-01    0.203E+01
RMM:  74    -0.105543148938E+04    0.89022E-01   -0.18516E-02  2162   0.262E-01    0.187E+01
RMM:  75    -0.105549105786E+04   -0.59568E-01   -0.12500E-02  2166   0.231E-01    0.196E+01
RMM:  76    -0.105546926448E+04    0.21793E-01   -0.22470E-02  2239   0.279E-01    0.193E+01
RMM:  77    -0.105544072924E+04    0.28535E-01   -0.10412E-02  2031   0.236E-01    0.191E+01
RMM:  78    -0.105543603568E+04    0.46936E-02   -0.43156E-03  2150   0.133E-01    0.194E+01
RMM:  79    -0.105542117335E+04    0.14862E-01   -0.14808E-03  2200   0.830E-02    0.192E+01
RMM:  80    -0.105544242006E+04   -0.21247E-01   -0.20758E-03  2158   0.880E-02    0.196E+01
RMM:  81    -0.105519860392E+04    0.24382E+00   -0.38615E+00  2010   0.397E+00    0.277E+01
RMM:  82    -0.105410761411E+04    0.10910E+01   -0.68814E-01  2190   0.171E+00    0.167E+01
RMM:  83    -0.105408315651E+04    0.24458E-01   -0.18693E-01  2400   0.771E-01    0.160E+01
RMM:  84    -0.105402180568E+04    0.61351E-01   -0.13175E-01  2106   0.711E-01    0.164E+01
RMM:  85    -0.105391936544E+04    0.10244E+00   -0.99763E-02  2264   0.605E-01    0.165E+01
RMM:  86    -0.105357284161E+04    0.34652E+00   -0.95196E-02  2204   0.582E-01    0.162E+01
RMM:  87    -0.105334010050E+04    0.23274E+00   -0.10203E-01  2072   0.614E-01    0.160E+01
RMM:  88    -0.105289373473E+04    0.44637E+00   -0.10067E-01  2348   0.537E-01    0.140E+01
RMM:  89    -0.105290838555E+04   -0.14651E-01   -0.21774E-02  2320   0.215E-01    0.149E+01
RMM:  90    -0.105294116087E+04   -0.32775E-01   -0.69359E-03  2144   0.171E-01    0.147E+01
RMM:  91    -0.105291716759E+04    0.23993E-01   -0.18090E-01  2093   0.850E-01    0.145E+01
RMM:  92    -0.105272840929E+04    0.18876E+00   -0.75843E-02  2298   0.547E-01    0.146E+01
RMM:  93    -0.105285195781E+04   -0.12355E+00   -0.40066E-02  2346   0.333E-01    0.138E+01
RMM:  94    -0.105310858251E+04   -0.25662E+00   -0.40556E-02  2243   0.396E-01    0.149E+01
RMM:  95    -0.105322986576E+04   -0.12128E+00   -0.19811E-02  2272   0.302E-01    0.146E+01
RMM:  96    -0.105363799777E+04   -0.40813E+00   -0.12338E-01  2030   0.727E-01    0.151E+01
RMM:  97    -0.105393252761E+04   -0.29453E+00   -0.52727E-02  2249   0.435E-01    0.163E+01
RMM:  98    -0.105394129104E+04   -0.87634E-02   -0.11203E-02  2249   0.221E-01    0.165E+01
RMM:  99    -0.105398012356E+04   -0.38833E-01   -0.32436E-03  2511   0.883E-02    0.172E+01
RMM: 100    -0.105398976449E+04   -0.96409E-02   -0.95401E-04  2058   0.654E-02    0.174E+01
RMM: 101    -0.105412275211E+04   -0.13299E+00   -0.42571E-02  2065   0.422E-01    0.176E+01
RMM: 102    -0.105405105822E+04    0.71694E-01   -0.11542E-02  2038   0.259E-01    0.163E+01
RMM: 103    -0.105415598751E+04   -0.10493E+00   -0.16097E-02  2092   0.277E-01    0.194E+01
RMM: 104    -0.105419103653E+04   -0.35049E-01   -0.72814E-03  2103   0.190E-01    0.199E+01
RMM: 105    -0.105420176095E+04   -0.10724E-01   -0.18276E-03  2393   0.821E-02    0.203E+01
RMM: 106    -0.105395561356E+04    0.24615E+00   -0.88440E-02  2157   0.580E-01    0.163E+01
RMM: 107    -0.105422604144E+04   -0.27043E+00   -0.67566E-02  2055   0.612E-01    0.194E+01
RMM: 108    -0.105429984015E+04   -0.73799E-01   -0.14944E-02  2223   0.269E-01    0.196E+01
RMM: 109    -0.105430135460E+04   -0.15145E-02   -0.34301E-03  2251   0.128E-01    0.198E+01
RMM: 110    -0.105441024201E+04   -0.10889E+00   -0.11033E-02  2027   0.209E-01    0.198E+01
RMM: 111    -0.105398387459E+04    0.42637E+00   -0.65411E-02  2033   0.518E-01    0.195E+01
RMM: 112    -0.105402720816E+04   -0.43334E-01   -0.22935E-02  2042   0.369E-01    0.201E+01
RMM: 113    -0.105401222921E+04    0.14979E-01   -0.40104E-03  2565   0.107E-01    0.201E+01
RMM: 114    -0.105396797418E+04    0.44255E-01   -0.59943E-03  2084   0.149E-01    0.198E+01
RMM: 115    -0.105394310118E+04    0.24873E-01   -0.51140E-03  2342   0.128E-01    0.197E+01
RMM: 116    -0.105393635603E+04    0.67452E-02   -0.13071E-01  2013   0.725E-01    0.153E+01
RMM: 117    -0.105403699336E+04   -0.10064E+00   -0.72559E-02  2145   0.595E-01    0.155E+01
RMM: 118    -0.105431451254E+04   -0.27752E+00   -0.50811E-02  2269   0.446E-01    0.181E+01
RMM: 119    -0.105426719683E+04    0.47316E-01   -0.19646E-02  2209   0.302E-01    0.166E+01
RMM: 120    -0.105431344142E+04   -0.46245E-01   -0.12463E-02  2358   0.198E-01
   1 F= -.10622573E+04 E0= -.10622229E+04  d E =-.106226E+04  mag=    24.9318
 curvature:   0.00 expect dE= 0.000E+00 dE for cont linesearch  0.000E+00
 trial: gam= 0.00000 g(F)=  0.409E+03 g(S)=  0.000E+00 ort = 0.000E+00 (trialstep = 0.100E+01)
 search vector abs. value=  0.409E+03
 bond charge predicted
       N       E                     dE             d eps       ncg     rms          rms(c)
DAV:   1     0.510027619018E+02    0.11053E+04   -0.61753E+04  2436   0.555E+02    0.275E+02
RMM:   2    -0.844603730531E+03   -0.89561E+03   -0.95579E+03  2641   0.209E+02    0.205E+02
RMM:   3    -0.118301626578E+04   -0.33841E+03   -0.34451E+03  2968   0.133E+02    0.458E+02
RMM:   4    -0.102493978282E+04    0.15808E+03   -0.67484E+02  2601   0.497E+01    0.293E+02
RMM:   5    -0.912606469536E+03    0.11233E+03   -0.62483E+02  2122   0.582E+01    0.225E+02
RMM:   6    -0.631500380897E+03    0.28111E+03   -0.20123E+02  2092   0.343E+01    0.139E+02
RMM:   7    -0.634532302921E+03   -0.30319E+01   -0.32676E+02  2107   0.370E+01    0.163E+02
RMM:   8    -0.616156331069E+03    0.18376E+02   -0.11632E+02  2338   0.213E+01    0.136E+02
RMM:   9    -0.640305756602E+03   -0.24149E+02   -0.11924E+02  2020   0.276E+01    0.130E+02
RMM:  10    -0.660572233452E+03   -0.20266E+02   -0.12707E+02  2035   0.277E+01    0.140E+02
RMM:  11    -0.619042937527E+03    0.41529E+02   -0.12448E+02  1958   0.306E+01    0.132E+02
RMM:  12    -0.581666771514E+03    0.37376E+02   -0.70463E+01  2002   0.213E+01    0.111E+02
RMM:  13    -0.556554385755E+03    0.25112E+02   -0.50345E+01  1984   0.183E+01    0.759E+01
RMM:  14    -0.541094303110E+03    0.15460E+02   -0.25174E+01  1967   0.124E+01    0.588E+01
RMM:  15    -0.533706608685E+03    0.73877E+01   -0.12926E+01  2068   0.846E+00    0.552E+01
RMM:  16    -0.534496192519E+03   -0.78958E+00   -0.10060E+01  2035   0.729E+00    0.481E+01
RMM:  17    -0.531352156813E+03    0.31440E+01   -0.51489E+00  1985   0.562E+00    0.440E+01
RMM:  18    -0.530398457842E+03    0.95370E+00   -0.38926E+00  1999   0.454E+00    0.442E+01
RMM:  19    -0.535593128107E+03   -0.51947E+01   -0.56930E+00  2031   0.480E+00    0.552E+01
RMM:  20    -0.533967116686E+03    0.16260E+01   -0.44588E+00  2077   0.412E+00    0.467E+01
RMM:  21    -0.533273875830E+03    0.69324E+00   -0.49089E+00  1968   0.486E+00    0.384E+01
RMM:  22    -0.535287801236E+03   -0.20139E+01   -0.47088E+00  2003   0.485E+00    0.339E+01
RMM:  23    -0.535315478274E+03   -0.27677E-01   -0.34419E+00  1985   0.447E+00    0.324E+01
RMM:  24    -0.533930227473E+03    0.13853E+01   -0.26112E+00  2008   0.366E+00    0.237E+01
RMM:  25    -0.533863141087E+03    0.67086E-01   -0.86532E-01  2168   0.194E+00    0.177E+01
RMM:  26    -0.533737476027E+03    0.12567E+00   -0.25753E-01  2213   0.927E-01    0.152E+01
RMM:  27    -0.534264531460E+03   -0.52706E+00   -0.17223E-01  2074   0.811E-01    0.165E+01
RMM:  28    -0.534467045713E+03   -0.20251E+00   -0.11050E-01  2080   0.674E-01    0.159E+01
RMM:  29    -0.534464331805E+03    0.27139E-02   -0.55698E-02  2276   0.403E-01    0.150E+01
RMM:  30    -0.534625637584E+03   -0.16131E+00   -0.60159E-02  1984   0.530E-01    0.147E+01
RMM:  31    -0.535197209678E+03   -0.57157E+00   -0.25458E-01  1979   0.111E+00    0.157E+01
RMM:  32    -0.535297548017E+03   -0.10034E+00   -0.21031E-01  1975   0.103E+00    0.148E+01
RMM:  33    -0.535326339099E+03   -0.28791E-01   -0.48377E-02  2593   0.285E-01    0.144E+01
RMM:  34    -0.535318229207E+03    0.81099E-02   -0.79984E-03  2188   0.163E-01    0.144E+01
RMM:  35    -0.535299910073E+03    0.18319E-01   -0.23988E-02  1978   0.347E-01    0.149E+01
RMM:  36    -0.535203396970E+03    0.96513E-01   -0.13331E-02  2055   0.233E-01    0.149E+01
RMM:  37    -0.535689266663E+03   -0.48587E+00   -0.11986E-01  1963   0.702E-01    0.148E+01
RMM:  38    -0.536451264337E+03   -0.76200E+00   -0.42127E-01  1992   0.139E+00    0.178E+01
RMM:  39    -0.536487249463E+03   -0.35985E-01   -0.17111E-01  2315   0.726E-01    0.167E+01
RMM:  40    -0.536502115721E+03   -0.14866E-01   -0.36713E-02  2420   0.247E-01    0.167E+01
RMM:  41    -0.536505877020E+03   -0.37613E-02   -0.72087E-03  2500   0.118E-01    0.167E+01
RMM:  42    -0.536482785603E+03    0.23091E-01   -0.66318E-03  2238   0.113E-01    0.165E+01
RMM:  43    -0.536239941686E+03    0.24284E+00   -0.16659E-01  1972   0.617E-01    0.157E+01
RMM:  44    -0.535975468261E+03    0.26447E+00   -0.56225E-01  2037   0.129E+00    0.152E+01
RMM:  45    -0.536099834037E+03   -0.12437E+00   -0.11125E-01  2396   0.477E-01    0.151E+01
RMM:  46    -0.536193759425E+03   -0.93925E-01   -0.61174E-02  2398   0.389E-01    0.155E+01
RMM:  47    -0.536533029687E+03   -0.33927E+00   -0.29021E-01  2012   0.111E+00    0.181E+01
RMM:  48    -0.536643720928E+03   -0.11069E+00   -0.21443E-01  1996   0.108E+00    0.141E+01
RMM:  49    -0.536965498791E+03   -0.32178E+00   -0.23664E-01  2037   0.965E-01    0.121E+01
RMM:  50    -0.537162061110E+03   -0.19656E+00   -0.15424E-01  2303   0.731E-01    0.110E+01
RMM:  51    -0.537228399514E+03   -0.66338E-01   -0.10100E-01  2404   0.526E-01    0.815E+00
RMM:  52    -0.537624654817E+03   -0.39626E+00   -0.38767E-01  2094   0.111E+00    0.138E+01
RMM:  53    -0.537598849864E+03    0.25805E-01   -0.10097E-01  2094   0.646E-01    0.848E+00
RMM:  54    -0.537742094249E+03   -0.14324E+00   -0.55502E-02  2357   0.355E-01    0.672E+00
RMM:  55    -0.537740213615E+03    0.18806E-02   -0.35190E-02  2058   0.355E-01    0.628E+00
RMM:  56    -0.537822421015E+03   -0.82207E-01   -0.21463E-02  2034   0.298E-01    0.608E+00
RMM:  57    -0.538157446523E+03   -0.33503E+00   -0.13565E-01  2014   0.760E-01    0.845E+00
RMM:  58    -0.538087157984E+03    0.70289E-01   -0.66553E-02  1963   0.624E-01    0.696E+00
RMM:  59    -0.538161331369E+03   -0.74173E-01   -0.98828E-02  2128   0.489E-01    0.471E+00
RMM:  60    -0.538205805880E+03   -0.44475E-01   -0.45686E-02  2241   0.372E-01    0.351E+00
RMM:  61    -0.538226401674E+03   -0.20596E-01   -0.24627E-02  2505   0.221E-01    0.332E+00
RMM:  62    -0.538384808866E+03   -0.15841E+00   -0.98321E-02  2035   0.640E-01    0.799E+00
RMM:  63    -0.538156750641E+03    0.22806E+00   -0.57026E-02  1982   0.562E-01    0.318E+00
RMM:  64    -0.538136471486E+03    0.20279E-01   -0.18600E-02  2304   0.219E-01    0.264E+00
RMM:  65    -0.538135495695E+03    0.97579E-03   -0.75350E-03  2177   0.162E-01    0.279E+00
RMM:  66    -0.538134856267E+03    0.63943E-03   -0.29428E-03  2453   0.836E-02    0.276E+00
RMM:  67    -0.538113758219E+03    0.21098E-01   -0.13655E-02  2033   0.241E-01    0.303E+00
RMM:  68    -0.538106452909E+03    0.73053E-02   -0.80843E-03  1977   0.198E-01    0.331E+00
RMM:  69    -0.538065331872E+03    0.41121E-01   -0.67910E-03  2270   0.136E-01    0.350E+00
RMM:  70    -0.538051949739E+03    0.13382E-01   -0.28318E-03  2461   0.872E-02    0.383E+00
RMM:  71    -0.538038174287E+03    0.13775E-01   -0.35779E-03  2157   0.105E-01    0.318E+00
RMM:  72    -0.538121809476E+03   -0.83635E-01   -0.33844E-02  1999   0.385E-01    0.547E+00
RMM:  73    -0.538075612395E+03    0.46197E-01   -0.21876E-02  1959   0.352E-01    0.426E+00
RMM:  74    -0.538027400971E+03    0.48211E-01   -0.91622E-03  2226   0.166E-01    0.404E+00
RMM:  75    -0.538001443337E+03    0.25958E-01   -0.63808E-03  2273   0.126E-01    0.345E+00
RMM:  76    -0.537995197751E+03    0.62456E-02   -0.68857E-03  2334   0.127E-01    0.271E+00
RMM:  77    -0.537998085183E+03   -0.28874E-02   -0.15045E-02  2114   0.220E-01    0.221E+00
RMM:  78    -0.538007320875E+03   -0.92357E-02   -0.62928E-03  2117   0.156E-01    0.198E+00
RMM:  79    -0.538037208437E+03   -0.29888E-01   -0.34864E-03  2252   0.110E-01    0.194E+00
RMM:  80    -0.538054269765E+03   -0.17061E-01   -0.28913E-03  2379   0.816E-02    0.175E+00
RMM:  81    -0.538144044060E+03   -0.89774E-01   -0.59179E-03  2195   0.122E-01    0.167E+00
RMM:  82    -0.538307227160E+03   -0.16318E+00   -0.22129E-02  2147   0.226E-01    0.162E+00
RMM:  83    -0.538310460489E+03   -0.32333E-02   -0.45775E-03  2119   0.138E-01    0.172E+00
RMM:  84    -0.538318818032E+03   -0.83575E-02   -0.21849E-03  2243   0.772E-02    0.135E+00
RMM:  85    -0.538358549486E+03   -0.39731E-01   -0.23024E-03  2230   0.781E-02    0.119E+00
RMM:  86    -0.538408888091E+03   -0.50339E-01   -0.31950E-03  2295   0.829E-02    0.860E-01
RMM:  87    -0.538479810774E+03   -0.70923E-01   -0.56684E-03  2127   0.117E-01    0.617E-01
RMM:  88    -0.538523479254E+03   -0.43668E-01   -0.30608E-03  2297   0.788E-02    0.501E-01
RMM:  89    -0.538561884111E+03   -0.38405E-01   -0.26762E-03  2217   0.662E-02    0.404E-01
RMM:  90    -0.538613101623E+03   -0.51218E-01   -0.33211E-03  2382   0.562E-02    0.286E-01
RMM:  91    -0.538642181452E+03   -0.29080E-01   -0.19110E-03  2400   0.421E-02    0.264E-01
RMM:  92    -0.538657473363E+03   -0.15292E-01   -0.96508E-04  2349   0.350E-02    0.234E-01
RMM:  93    -0.538673654475E+03   -0.16181E-01   -0.12371E-03  2286   0.361E-02    0.138E-01
RMM:  94    -0.538683068913E+03   -0.94144E-02   -0.72421E-04  2410   0.280E-02    0.118E-01
RMM:  95    -0.538690588669E+03   -0.75198E-02   -0.62978E-04  2313   0.215E-02    0.988E-02
RMM:  96    -0.538695497728E+03   -0.49091E-02   -0.45674E-04  2342   0.201E-02    0.686E-02
RMM:  97    -0.538698611942E+03   -0.31142E-02   -0.34878E-04  2273   0.143E-02    0.613E-02
RMM:  98    -0.538699341174E+03   -0.72923E-03   -0.69153E-05  1840   0.922E-03    0.450E-02
RMM:  99    -0.538700109446E+03   -0.76827E-03   -0.69737E-05  1834   0.642E-03    0.518E-02
RMM: 100    -0.538700664983E+03   -0.55554E-03   -0.30593E-05  1706   0.576E-03    0.395E-02
RMM: 101    -0.538701473248E+03   -0.80827E-03   -0.70969E-05  1853   0.683E-03    0.566E-02
RMM: 102    -0.538702031920E+03   -0.55867E-03   -0.66133E-05  1869   0.770E-03    0.314E-02
RMM: 103    -0.538702355694E+03   -0.32377E-03   -0.47313E-05  1771   0.570E-03    0.198E-02
RMM: 104    -0.538702519125E+03   -0.16343E-03   -0.19586E-05  1628   0.498E-03    0.152E-02
RMM: 105    -0.538702598401E+03   -0.79275E-04   -0.17376E-05  1643   0.359E-03    0.113E-02
RMM: 106    -0.538702596291E+03    0.21094E-05   -0.46567E-06  1384   0.302E-03    0.910E-03
RMM: 107    -0.538702596871E+03   -0.58029E-06   -0.37506E-06  1342   0.194E-03
   2 F= -.54718539E+03 E0= -.54715550E+03  d E =0.515072E+03  mag=    17.7061
 trial-energy change:  515.071869  1 .order  566.441599 -408.815042 1541.698240
 step:   0.2383(harm=  0.2096)  dis= 0.18983  next Energy= -1111.657173 (dE=-0.494E+02)
 bond charge predicted
       N       E                     dE             d eps       ncg     rms          rms(c)
DAV:   1    -0.660378959656E+03   -0.12168E+03   -0.41398E+04  2400   0.489E+02    0.183E+02
RMM:   2    -0.123272030498E+04   -0.57234E+03   -0.58608E+03  2573   0.154E+02    0.173E+02
RMM:   3    -0.152960056975E+04   -0.29688E+03   -0.15378E+03  2658   0.805E+01    0.300E+02
RMM:   4    -0.127439380993E+04    0.25521E+03   -0.30070E+02  2235   0.401E+01    0.173E+02
RMM:   5    -0.136138988003E+04   -0.86996E+02   -0.38481E+02  2158   0.405E+01    0.201E+02
RMM:   6    -0.115095914173E+04    0.21043E+03   -0.16975E+02  2253   0.276E+01    0.137E+02
RMM:   7    -0.113552066193E+04    0.15438E+02   -0.72985E+01  2012   0.199E+01    0.127E+02
RMM:   8    -0.115109243712E+04   -0.15572E+02   -0.68394E+01  2186   0.176E+01    0.140E+02
RMM:   9    -0.111382819217E+04    0.37264E+02   -0.41614E+01  2185   0.142E+01    0.120E+02
RMM:  10    -0.111759001200E+04   -0.37618E+01   -0.66069E+01  2018   0.190E+01    0.122E+02
RMM:  11    -0.115710003840E+04   -0.39510E+02   -0.77136E+01  2056   0.205E+01    0.130E+02
RMM:  12    -0.111293591499E+04    0.44164E+02   -0.62643E+01  2040   0.190E+01    0.101E+02
RMM:  13    -0.110527497083E+04    0.76609E+01   -0.26691E+01  2106   0.117E+01    0.964E+01
RMM:  14    -0.109065364014E+04    0.14621E+02   -0.14413E+01  2103   0.867E+00    0.874E+01
RMM:  15    -0.110251954794E+04   -0.11866E+02   -0.21592E+01  2014   0.109E+01    0.940E+01
RMM:  16    -0.109158020074E+04    0.10939E+02   -0.14889E+01  1990   0.893E+00    0.788E+01
RMM:  17    -0.107643489339E+04    0.15145E+02   -0.57123E+00  2077   0.528E+00    0.623E+01
RMM:  18    -0.107974159486E+04   -0.33067E+01   -0.74396E+00  2047   0.595E+00    0.796E+01
RMM:  19    -0.108865058285E+04   -0.89090E+01   -0.16647E+01  2023   0.918E+00    0.838E+01
RMM:  20    -0.107725592852E+04    0.11395E+02   -0.89915E+00  2086   0.657E+00    0.735E+01
RMM:  21    -0.107001955987E+04    0.72364E+01   -0.55181E+00  2054   0.519E+00    0.551E+01
RMM:  22    -0.106608758745E+04    0.39320E+01   -0.24980E+00  2072   0.350E+00    0.500E+01
RMM:  23    -0.106445978848E+04    0.16278E+01   -0.78026E-01  2286   0.181E+00    0.426E+01
RMM:  24    -0.106513031634E+04   -0.67053E+00   -0.95714E-01  2080   0.209E+00    0.438E+01
RMM:  25    -0.106457775980E+04    0.55256E+00   -0.25119E-01  2091   0.111E+00    0.413E+01
RMM:  26    -0.106464264234E+04   -0.64883E-01   -0.60308E-02  2395   0.464E-01    0.413E+01
RMM:  27    -0.106511093949E+04   -0.46830E+00   -0.19644E-01  2008   0.897E-01    0.408E+01
RMM:  28    -0.106534341244E+04   -0.23247E+00   -0.43166E-01  2055   0.134E+00    0.404E+01
RMM:  29    -0.106538444350E+04   -0.41031E-01   -0.76161E-02  2316   0.448E-01    0.404E+01
RMM:  30    -0.106507637252E+04    0.30807E+00   -0.23704E-01  2075   0.962E-01    0.409E+01
RMM:  31    -0.106528578449E+04   -0.20941E+00   -0.11206E-01  2239   0.513E-01    0.414E+01
RMM:  32    -0.106522920319E+04    0.56581E-01   -0.21201E-02  2310   0.208E-01    0.413E+01
RMM:  33    -0.106515831569E+04    0.70888E-01   -0.88281E-03  2136   0.187E-01    0.413E+01
RMM:  34    -0.106518822057E+04   -0.29905E-01   -0.32510E-03  2458   0.781E-02    0.413E+01
RMM:  35    -0.106531014034E+04   -0.12192E+00   -0.27107E-01  2016   0.107E+00    0.398E+01
RMM:  36    -0.106510620701E+04    0.20393E+00   -0.12773E-01  2011   0.745E-01    0.403E+01
RMM:  37    -0.106580683305E+04   -0.70063E+00   -0.60368E-01  2034   0.148E+00    0.386E+01
RMM:  38    -0.106534929947E+04    0.45753E+00   -0.46745E-01  2228   0.125E+00    0.379E+01
RMM:  39    -0.106581507792E+04   -0.46578E+00   -0.10395E+00  2168   0.182E+00    0.366E+01
RMM:  40    -0.106188074957E+04    0.39343E+01   -0.40466E+00  2051   0.393E+00    0.415E+01
RMM:  41    -0.106260974290E+04   -0.72899E+00   -0.76431E-01  2227   0.172E+00    0.368E+01
RMM:  42    -0.106248505866E+04    0.12468E+00   -0.55849E-01  2245   0.137E+00    0.364E+01
RMM:  43    -0.106181682937E+04    0.66823E+00   -0.27774E-01  2247   0.980E-01    0.341E+01
RMM:  44    -0.106269495543E+04   -0.87813E+00   -0.67111E-01  2056   0.152E+00    0.312E+01
RMM:  45    -0.106279461126E+04   -0.99656E-01   -0.24803E-01  2306   0.917E-01    0.296E+01
RMM:  46    -0.106283688606E+04   -0.42275E-01   -0.76951E-02  2514   0.449E-01    0.293E+01
RMM:  47    -0.104088991149E+04    0.21947E+02   -0.87309E+00  1958   0.601E+00    0.522E+01
RMM:  48    -0.104652651373E+04   -0.56366E+01   -0.12124E+00  2084   0.238E+00    0.430E+01
RMM:  49    -0.105078830475E+04   -0.42618E+01   -0.59163E-01  2244   0.153E+00    0.440E+01
RMM:  50    -0.105392879498E+04   -0.31405E+01   -0.30870E-01  2095   0.114E+00    0.433E+01
RMM:  51    -0.105632943714E+04   -0.24006E+01   -0.27001E-01  2131   0.962E-01    0.404E+01
RMM:  52    -0.105769398451E+04   -0.13645E+01   -0.96717E-01  2035   0.212E+00    0.390E+01
RMM:  53    -0.105785352754E+04   -0.15954E+00   -0.44834E-01  2120   0.143E+00    0.344E+01
RMM:  54    -0.105885138311E+04   -0.99786E+00   -0.30044E-01  2265   0.105E+00    0.309E+01
RMM:  55    -0.106254377497E+04   -0.36924E+01   -0.10019E+00  2033   0.192E+00    0.268E+01
RMM:  56    -0.106353005608E+04   -0.98628E+00   -0.11348E+00  2235   0.192E+00    0.255E+01
RMM:  57    -0.106663590801E+04   -0.31059E+01   -0.34452E+00  2141   0.330E+00    0.398E+01
RMM:  58    -0.106472426347E+04    0.19116E+01   -0.10089E+00  2104   0.212E+00    0.302E+01
RMM:  59    -0.106434857605E+04    0.37569E+00   -0.55972E-01  2187   0.139E+00    0.289E+01
RMM:  60    -0.106420853942E+04    0.14004E+00   -0.25327E-01  2349   0.886E-01    0.279E+01
RMM:  61    -0.106394128111E+04    0.26726E+00   -0.36668E-01  2124   0.115E+00    0.250E+01
RMM:  62    -0.107402857557E+04   -0.10087E+02   -0.25413E+00  2125   0.329E+00    0.706E+01
RMM:  63    -0.106346540129E+04    0.10563E+02   -0.33769E+00  2048   0.395E+00    0.270E+01
RMM:  64    -0.106244825879E+04    0.10171E+01   -0.59666E-01  2017   0.174E+00    0.224E+01
RMM:  65    -0.106208236164E+04    0.36590E+00   -0.28877E-01  2226   0.101E+00    0.213E+01
RMM:  66    -0.106210128527E+04   -0.18924E-01   -0.75713E-02  2265   0.524E-01    0.201E+01
RMM:  67    -0.106731796456E+04   -0.52167E+01   -0.39647E+00  2007   0.362E+00    0.295E+01
RMM:  68    -0.106607737532E+04    0.12406E+01   -0.17346E+00  2102   0.269E+00    0.240E+01
RMM:  69    -0.106564731551E+04    0.43006E+00   -0.56912E-01  2158   0.159E+00    0.207E+01
RMM:  70    -0.106571470350E+04   -0.67388E-01   -0.22806E-01  2180   0.898E-01    0.196E+01
RMM:  71    -0.106565229528E+04    0.62408E-01   -0.81906E-02  2457   0.456E-01    0.188E+01
RMM:  72    -0.106660065788E+04   -0.94836E+00   -0.15936E+00  2058   0.259E+00    0.232E+01
RMM:  73    -0.106662980541E+04   -0.29148E-01   -0.46930E-01  2140   0.144E+00    0.216E+01
RMM:  74    -0.106681675864E+04   -0.18695E+00   -0.20342E-01  2238   0.873E-01    0.196E+01
RMM:  75    -0.106669762286E+04    0.11914E+00   -0.18233E-01  2277   0.795E-01    0.184E+01
RMM:  76    -0.106641658994E+04    0.28103E+00   -0.11682E-01  2232   0.656E-01    0.170E+01
RMM:  77    -0.106640529664E+04    0.11293E-01   -0.16592E-01  2171   0.821E-01    0.169E+01
RMM:  78    -0.106629366985E+04    0.11163E+00   -0.10300E-01  2204   0.619E-01    0.170E+01
RMM:  79    -0.106623011570E+04    0.63554E-01   -0.12489E-01  2145   0.675E-01    0.168E+01
RMM:  80    -0.106615152017E+04    0.78596E-01   -0.10158E-01  2398   0.529E-01    0.165E+01
RMM:  81    -0.106600915265E+04    0.14237E+00   -0.51521E-02  2307   0.400E-01    0.157E+01
RMM:  82    -0.106605984738E+04   -0.50695E-01   -0.84865E-02  2276   0.523E-01    0.180E+01
RMM:  83    -0.106609412645E+04   -0.34279E-01   -0.20445E-02  2166   0.287E-01    0.186E+01
RMM:  84    -0.106599636057E+04    0.97766E-01   -0.21868E-02  2169   0.282E-01    0.174E+01
RMM:  85    -0.106591821170E+04    0.78149E-01   -0.37926E-02  2132   0.393E-01    0.157E+01
RMM:  86    -0.106586235511E+04    0.55857E-01   -0.34604E-02  2160   0.355E-01    0.149E+01
RMM:  87    -0.106647410997E+04   -0.61175E+00   -0.33176E-01  2023   0.118E+00    0.157E+01
RMM:  88    -0.106662268584E+04   -0.14858E+00   -0.16165E-01  2131   0.845E-01    0.154E+01
RMM:  89    -0.106659566076E+04    0.27025E-01   -0.69830E-02  2442   0.425E-01    0.137E+01
RMM:  90    -0.106658410353E+04    0.11557E-01   -0.46167E-02  2222   0.400E-01    0.133E+01
RMM:  91    -0.106659066365E+04   -0.65601E-02   -0.10512E-02  2393   0.171E-01    0.132E+01
RMM:  92    -0.106648092051E+04    0.10974E+00   -0.19096E-01  2111   0.898E-01    0.128E+01
RMM:  93    -0.106659148590E+04   -0.11057E+00   -0.95541E-02  2057   0.696E-01    0.113E+01
RMM:  94    -0.106671695501E+04   -0.12547E+00   -0.77131E-02  2219   0.552E-01    0.119E+01
RMM:  95    -0.106674923653E+04   -0.32282E-01   -0.10235E-01  2182   0.632E-01    0.103E+01
RMM:  96    -0.106686520468E+04   -0.11597E+00   -0.89767E-02  2400   0.551E-01    0.106E+01
RMM:  97    -0.106712538271E+04   -0.26018E+00   -0.26984E-01  2150   0.103E+00    0.157E+01
RMM:  98    -0.106702788604E+04    0.97497E-01   -0.13400E-01  2052   0.869E-01    0.122E+01
RMM:  99    -0.106703014495E+04   -0.22589E-02   -0.37639E-02  2272   0.415E-01    0.112E+01
RMM: 100    -0.106704946229E+04   -0.19317E-01   -0.19995E-02  2262   0.267E-01    0.101E+01
RMM: 101    -0.106711538855E+04   -0.65926E-01   -0.84648E-03  2217   0.182E-01    0.101E+01
RMM: 102    -0.106714854892E+04   -0.33160E-01   -0.15620E-01  2083   0.815E-01    0.935E+00
RMM: 103    -0.106716071435E+04   -0.12165E-01   -0.40993E-02  2063   0.447E-01    0.993E+00
RMM: 104    -0.106722343395E+04   -0.62720E-01   -0.18324E-02  2200   0.285E-01    0.111E+01
RMM: 105    -0.106722667764E+04   -0.32437E-02   -0.55022E-03  2253   0.150E-01    0.118E+01
RMM: 106    -0.106730423724E+04   -0.77560E-01   -0.99364E-03  2148   0.210E-01    0.132E+01
RMM: 107    -0.106756355977E+04   -0.25932E+00   -0.35564E-01  2101   0.124E+00    0.147E+01
RMM: 108    -0.106733011600E+04    0.23344E+00   -0.11965E-01  2099   0.757E-01    0.106E+01
RMM: 109    -0.106738572441E+04   -0.55608E-01   -0.12860E-01  2168   0.728E-01    0.130E+01
RMM: 110    -0.106744276042E+04   -0.57036E-01   -0.94497E-02  2331   0.580E-01    0.162E+01
RMM: 111    -0.106746510093E+04   -0.22341E-01   -0.36986E-02  2300   0.363E-01    0.168E+01
RMM: 112    -0.106747692947E+04   -0.11829E-01   -0.81105E-02  2109   0.570E-01    0.153E+01
RMM: 113    -0.106737964607E+04    0.97283E-01   -0.39275E-02  2112   0.414E-01    0.146E+01
RMM: 114    -0.106734679272E+04    0.32853E-01   -0.40113E-02  2167   0.419E-01    0.139E+01
RMM: 115    -0.106741583621E+04   -0.69043E-01   -0.31638E-02  2188   0.381E-01    0.145E+01
RMM: 116    -0.106739348597E+04    0.22350E-01   -0.39256E-02  2243   0.389E-01    0.139E+01
RMM: 117    -0.106755922161E+04   -0.16574E+00   -0.79329E-02  2235   0.538E-01    0.152E+01
RMM: 118    -0.106754570747E+04    0.13514E-01   -0.29663E-02  2172   0.358E-01    0.146E+01
RMM: 119    -0.106765264736E+04   -0.10694E+00   -0.21092E-02  2263   0.282E-01    0.151E+01
RMM: 120    -0.106768589128E+04   -0.33244E-01   -0.17529E-02  2178   0.262E-01
   3 F= -.10756843E+04 E0= -.10756566E+04  d E =-.134270E+02  mag=    11.4601
 curvature:  -0.10 expect dE=-0.248E+02 dE for cont linesearch -0.805E+01
 ZBRENT: interpolating
 opt :   0.1662  next Energy= -1082.076939 (dE=-0.198E+02)
 bond charge predicted
       N       E                     dE             d eps       ncg     rms          rms(c)
DAV:   1    -0.107531457426E+04   -0.76619E+01   -0.61613E+02  2076   0.587E+01    0.222E+01
RMM:   2    -0.112056736104E+04   -0.45253E+02   -0.63644E+01  2052   0.183E+01    0.102E+02
RMM:   3    -0.109546946994E+04    0.25098E+02   -0.19381E+01  2041   0.118E+01    0.604E+01
RMM:   4    -0.108246598549E+04    0.13003E+02   -0.65300E+00  2168   0.655E+00    0.470E+01
RMM:   5    -0.108352688093E+04   -0.10609E+01   -0.60240E+00  2169   0.503E+00    0.456E+01
RMM:   6    -0.107841449788E+04    0.51124E+01   -0.47859E+00  2220   0.401E+00    0.256E+01
RMM:   7    -0.107794401829E+04    0.47048E+00   -0.23790E+00  2133   0.311E+00    0.278E+01
RMM:   8    -0.107780454519E+04    0.13947E+00   -0.19553E+00  2126   0.294E+00    0.279E+01
RMM:   9    -0.107732883678E+04    0.47571E+00   -0.13114E+00  2139   0.246E+00    0.178E+01
RMM:  10    -0.107711286030E+04    0.21598E+00   -0.63469E-01  2156   0.173E+00    0.177E+01
RMM:  11    -0.107682983495E+04    0.28303E+00   -0.43845E-01  2119   0.140E+00    0.136E+01
RMM:  12    -0.107705019929E+04   -0.22036E+00   -0.35258E-01  2140   0.121E+00    0.161E+01
RMM:  13    -0.107671823782E+04    0.33196E+00   -0.21629E-01  2079   0.106E+00    0.107E+01
RMM:  14    -0.107679235218E+04   -0.74114E-01   -0.23420E-01  2132   0.102E+00    0.115E+01
RMM:  15    -0.107670306054E+04    0.89292E-01   -0.13381E-01  2083   0.825E-01    0.831E+00
RMM:  16    -0.107678777967E+04   -0.84719E-01   -0.17267E-01  2069   0.856E-01    0.940E+00
RMM:  17    -0.107673944236E+04    0.48337E-01   -0.11156E-01  2149   0.708E-01    0.699E+00
RMM:  18    -0.107675541546E+04   -0.15973E-01   -0.59590E-02  2120   0.529E-01    0.645E+00
RMM:  19    -0.107672860761E+04    0.26808E-01   -0.48198E-02  2143   0.468E-01    0.634E+00
RMM:  20    -0.107670791991E+04    0.20688E-01   -0.61086E-02  2214   0.462E-01    0.728E+00
RMM:  21    -0.107659983779E+04    0.10808E+00   -0.52979E-02  2159   0.435E-01    0.647E+00
RMM:  22    -0.107654860388E+04    0.51234E-01   -0.21466E-02  2269   0.292E-01    0.647E+00
RMM:  23    -0.107653462211E+04    0.13982E-01   -0.15846E-02  2207   0.247E-01    0.631E+00
RMM:  24    -0.107646550569E+04    0.69116E-01   -0.31186E-02  2151   0.349E-01    0.461E+00
RMM:  25    -0.107643413787E+04    0.31368E-01   -0.51982E-02  2195   0.462E-01    0.579E+00
RMM:  26    -0.107651694038E+04   -0.82803E-01   -0.23246E-02  2120   0.311E-01    0.711E+00
RMM:  27    -0.107656888283E+04   -0.51942E-01   -0.17308E-02  2197   0.229E-01    0.663E+00
RMM:  28    -0.107658270422E+04   -0.13821E-01   -0.98457E-03  2340   0.167E-01    0.619E+00
RMM:  29    -0.107663495042E+04   -0.52246E-01   -0.29047E-02  2077   0.296E-01    0.526E+00
RMM:  30    -0.107667480613E+04   -0.39856E-01   -0.39332E-02  2260   0.319E-01    0.331E+00
RMM:  31    -0.107669262274E+04   -0.17817E-01   -0.22265E-02  2254   0.259E-01    0.232E+00
RMM:  32    -0.107671512055E+04   -0.22498E-01   -0.78447E-03  2330   0.156E-01    0.253E+00
RMM:  33    -0.107673867182E+04   -0.23551E-01   -0.41239E-03  2298   0.113E-01    0.288E+00
RMM:  34    -0.107675855925E+04   -0.19887E-01   -0.82073E-03  2152   0.146E-01    0.167E+00
RMM:  35    -0.107679352003E+04   -0.34961E-01   -0.89646E-03  2280   0.154E-01    0.126E+00
RMM:  36    -0.107682027609E+04   -0.26756E-01   -0.59654E-03  2288   0.138E-01    0.119E+00
RMM:  37    -0.107684252063E+04   -0.22245E-01   -0.46217E-03  2319   0.110E-01    0.155E+00
RMM:  38    -0.107684911465E+04   -0.65940E-02   -0.24086E-03  2332   0.832E-02    0.144E+00
RMM:  39    -0.107686351126E+04   -0.14397E-01   -0.11468E-03  2224   0.620E-02    0.113E+00
RMM:  40    -0.107691770391E+04   -0.54193E-01   -0.26145E-03  2108   0.821E-02    0.160E+00
RMM:  41    -0.107695825209E+04   -0.40548E-01   -0.35422E-03  2309   0.873E-02    0.117E+00
RMM:  42    -0.107699773223E+04   -0.39480E-01   -0.28067E-03  2370   0.677E-02    0.102E+00
RMM:  43    -0.107703853446E+04   -0.40802E-01   -0.26755E-03  2388   0.617E-02    0.107E+00
RMM:  44    -0.107706582718E+04   -0.27293E-01   -0.22543E-03  2376   0.602E-02    0.510E-01
RMM:  45    -0.107709149700E+04   -0.25670E-01   -0.16977E-03  2376   0.476E-02    0.488E-01
RMM:  46    -0.107710942887E+04   -0.17932E-01   -0.10661E-03  2421   0.359E-02    0.425E-01
RMM:  47    -0.107712865221E+04   -0.19223E-01   -0.11859E-03  2265   0.375E-02    0.295E-01
RMM:  48    -0.107713871124E+04   -0.10059E-01   -0.79379E-04  2395   0.350E-02    0.237E-01
RMM:  49    -0.107714257355E+04   -0.38623E-02   -0.30730E-04  2297   0.194E-02    0.201E-01
RMM:  50    -0.107714653311E+04   -0.39596E-02   -0.21657E-04  2225   0.148E-02    0.152E-01
RMM:  51    -0.107715586651E+04   -0.93334E-02   -0.91806E-04  2075   0.317E-02    0.100E-01
RMM:  52    -0.107715760495E+04   -0.17384E-02   -0.17557E-04  2064   0.195E-02    0.923E-02
RMM:  53    -0.107715886303E+04   -0.12581E-02   -0.11689E-04  2092   0.985E-03    0.111E-01
RMM:  54    -0.107716054472E+04   -0.16817E-02   -0.90020E-05  2079   0.112E-02    0.108E-01
RMM:  55    -0.107716243511E+04   -0.18904E-02   -0.15693E-04  2084   0.119E-02    0.724E-02
RMM:  56    -0.107716294475E+04   -0.50964E-03   -0.34492E-05  1836   0.839E-03    0.540E-02
RMM:  57    -0.107716305323E+04   -0.10848E-03   -0.38853E-05  1928   0.866E-03    0.804E-02
RMM:  58    -0.107716383731E+04   -0.78409E-03   -0.47048E-05  1910   0.765E-03    0.282E-02
RMM:  59    -0.107716422087E+04   -0.38356E-03   -0.27382E-05  1877   0.521E-03    0.242E-02
RMM:  60    -0.107716443902E+04   -0.21815E-03   -0.14716E-05  1711   0.379E-03    0.250E-02
RMM:  61    -0.107716461939E+04   -0.18036E-03   -0.14702E-05  1750   0.386E-03    0.250E-02
RMM:  62    -0.107716466997E+04   -0.50580E-04   -0.52121E-06  1469   0.297E-03    0.937E-03
RMM:  63    -0.107716471591E+04   -0.45940E-04   -0.36636E-06  1372   0.237E-03    0.105E-02
RMM:  64    -0.107716474893E+04   -0.33017E-04   -0.31467E-06  1326   0.212E-03    0.630E-03
RMM:  65    -0.107716476476E+04   -0.15833E-04   -0.14899E-06  1184   0.165E-03    0.425E-03
RMM:  66    -0.107716477776E+04   -0.13001E-04   -0.13213E-06  1135   0.141E-03    0.338E-03
RMM:  67    -0.107716478620E+04   -0.84398E-05   -0.10078E-06  1101   0.129E-03    0.213E-03
RMM:  68    -0.107716479288E+04   -0.66823E-05   -0.71815E-07  1034   0.107E-03    0.153E-03
RMM:  69    -0.107716479841E+04   -0.55275E-05   -0.49577E-07   991   0.930E-04    0.179E-03
RMM:  70    -0.107716480184E+04   -0.34277E-05   -0.42996E-07   951   0.799E-04    0.175E-03
RMM:  71    -0.107716480486E+04   -0.30246E-05   -0.34426E-07   930   0.765E-04    0.180E-03
RMM:  72    -0.107716480691E+04   -0.20468E-05   -0.30516E-07   900   0.678E-04    0.909E-04
RMM:  73    -0.107716480852E+04   -0.16154E-05   -0.24417E-07   891   0.653E-04    0.894E-04
RMM:  74    -0.107716480961E+04   -0.10837E-05   -0.21634E-07   850   0.578E-04    0.888E-04
RMM:  75    -0.107716481024E+04   -0.63179E-06   -0.17422E-07   801   0.549E-04
   4 F= -.10851452E+04 E0= -.10851290E+04  d E =-.228879E+02  mag=    13.7422
 curvature:  -0.08 expect dE=-0.856E+01 dE for cont linesearch -0.105E+01
 ZBRENT: interpolating
 opt :   0.1245  next Energy= -1086.861625 (dE=-0.246E+02)
 bond charge predicted
       N       E                     dE             d eps       ncg     rms          rms(c)
DAV:   1    -0.107804308691E+04   -0.87828E+00   -0.21112E+02  2022   0.342E+01    0.737E+00
RMM:   2    -0.107890499598E+04   -0.86191E+00   -0.64168E+00  2074   0.607E+00    0.182E+01
RMM:   3    -0.107916568175E+04   -0.26069E+00   -0.15922E+00  2409   0.281E+00    0.197E+01
RMM:   4    -0.107931109820E+04   -0.14542E+00   -0.89983E-01  2267   0.207E+00    0.167E+01
RMM:   5    -0.107852858591E+04    0.78251E+00   -0.57720E-01  2215   0.156E+00    0.940E+00
RMM:   6    -0.107864214013E+04   -0.11355E+00   -0.30323E-01  2178   0.115E+00    0.976E+00
RMM:   7    -0.107858390753E+04    0.58233E-01   -0.18796E-01  2211   0.889E-01    0.101E+01
RMM:   8    -0.107854801410E+04    0.35893E-01   -0.12901E-01  2128   0.741E-01    0.976E+00
RMM:   9    -0.107850436713E+04    0.43647E-01   -0.14635E-01  2139   0.802E-01    0.755E+00
RMM:  10    -0.107844003124E+04    0.64336E-01   -0.11112E-01  2166   0.702E-01    0.728E+00
RMM:  11    -0.107848512331E+04   -0.45092E-01   -0.12991E-01  2126   0.705E-01    0.678E+00
RMM:  12    -0.107846611177E+04    0.19012E-01   -0.55041E-02  2117   0.513E-01    0.607E+00
RMM:  13    -0.107847738075E+04   -0.11269E-01   -0.32692E-02  2037   0.387E-01    0.604E+00
RMM:  14    -0.107848212395E+04   -0.47432E-02   -0.33896E-02  2072   0.388E-01    0.562E+00
RMM:  15    -0.107848517796E+04   -0.30540E-02   -0.23761E-02  2066   0.333E-01    0.463E+00
RMM:  16    -0.107849730511E+04   -0.12127E-01   -0.24431E-02  2217   0.294E-01    0.333E+00
RMM:  17    -0.107851108127E+04   -0.13776E-01   -0.20492E-02  2171   0.278E-01    0.209E+00
RMM:  18    -0.107851684986E+04   -0.57686E-02   -0.13154E-02  2189   0.235E-01    0.229E+00
RMM:  19    -0.107852570113E+04   -0.88513E-02   -0.93697E-03  2219   0.199E-01    0.235E+00
RMM:  20    -0.107852715562E+04   -0.14545E-02   -0.69061E-03  2186   0.172E-01    0.228E+00
RMM:  21    -0.107852697953E+04    0.17609E-03   -0.47414E-03  2241   0.137E-01    0.177E+00
RMM:  22    -0.107853092177E+04   -0.39422E-02   -0.31903E-03  2272   0.108E-01    0.153E+00
RMM:  23    -0.107853333734E+04   -0.24156E-02   -0.28422E-03  2307   0.967E-02    0.652E-01
RMM:  24    -0.107853532091E+04   -0.19836E-02   -0.17664E-03  2125   0.853E-02    0.604E-01
RMM:  25    -0.107853577117E+04   -0.45026E-03   -0.70556E-04  2145   0.549E-02    0.724E-01
RMM:  26    -0.107853550206E+04    0.26911E-03   -0.63449E-04  2190   0.482E-02    0.644E-01
RMM:  27    -0.107853496337E+04    0.53869E-03   -0.75754E-04  2137   0.547E-02    0.485E-01
RMM:  28    -0.107853423557E+04    0.72780E-03   -0.41075E-04  2273   0.365E-02    0.465E-01
RMM:  29    -0.107853361527E+04    0.62030E-03   -0.18286E-04  2170   0.248E-02    0.435E-01
RMM:  30    -0.107853312775E+04    0.48752E-03   -0.12019E-04  2137   0.192E-02    0.399E-01
RMM:  31    -0.107853270816E+04    0.41959E-03   -0.11854E-04  2092   0.192E-02    0.205E-01
RMM:  32    -0.107853253648E+04    0.17168E-03   -0.82665E-05  2036   0.168E-02    0.185E-01
RMM:  33    -0.107853246078E+04    0.75708E-04   -0.54815E-05  1942   0.131E-02    0.277E-01
RMM:  34    -0.107853236829E+04    0.92487E-04   -0.36814E-05  1770   0.109E-02    0.247E-01
RMM:  35    -0.107853247087E+04   -0.10258E-03   -0.51239E-05  1940   0.126E-02    0.174E-01
RMM:  36    -0.107853286670E+04   -0.39583E-03   -0.53101E-05  1948   0.121E-02    0.144E-01
RMM:  37    -0.107853323309E+04   -0.36639E-03   -0.54956E-05  1945   0.116E-02    0.108E-01
RMM:  38    -0.107853368698E+04   -0.45389E-03   -0.51046E-05  1992   0.986E-03    0.684E-02
RMM:  39    -0.107853435899E+04   -0.67200E-03   -0.50078E-05  1990   0.958E-03    0.744E-02
RMM:  40    -0.107853536171E+04   -0.10027E-02   -0.95898E-05  2041   0.132E-02    0.878E-02
RMM:  41    -0.107853582068E+04   -0.45897E-03   -0.59024E-05  1966   0.108E-02    0.713E-02
RMM:  42    -0.107853608274E+04   -0.26206E-03   -0.27954E-05  1787   0.652E-03    0.600E-02
RMM:  43    -0.107853627892E+04   -0.19618E-03   -0.12338E-05  1582   0.481E-03    0.694E-02
RMM:  44    -0.107853672454E+04   -0.44562E-03   -0.55225E-05  1976   0.979E-03    0.362E-02
RMM:  45    -0.107853705261E+04   -0.32807E-03   -0.33195E-05  1873   0.717E-03    0.236E-02
RMM:  46    -0.107853736026E+04   -0.30765E-03   -0.33428E-05  1920   0.687E-03    0.227E-02
RMM:  47    -0.107853757001E+04   -0.20975E-03   -0.33081E-05  1916   0.760E-03    0.290E-02
RMM:  48    -0.107853765923E+04   -0.89214E-04   -0.93133E-06  1489   0.411E-03    0.225E-02
RMM:  49    -0.107853773951E+04   -0.80282E-04   -0.12756E-05  1622   0.428E-03    0.130E-02
RMM:  50    -0.107853782459E+04   -0.85085E-04   -0.10351E-05  1574   0.389E-03    0.164E-02
RMM:  51    -0.107853784548E+04   -0.20883E-04   -0.89702E-06  1540   0.352E-03    0.227E-02
RMM:  52    -0.107853780621E+04    0.39264E-04   -0.11858E-05  1673   0.453E-03    0.154E-02
RMM:  53    -0.107853783354E+04   -0.27328E-04   -0.34856E-06  1281   0.317E-03    0.113E-02
RMM:  54    -0.107853783115E+04    0.23898E-05   -0.20987E-06  1202   0.220E-03    0.685E-03
RMM:  55    -0.107853783432E+04   -0.31694E-05   -0.15419E-06  1150   0.205E-03    0.622E-03
RMM:  56    -0.107853783470E+04   -0.37921E-06   -0.13941E-06  1141   0.180E-03
   5 F= -.10865088E+04 E0= -.10864944E+04  d E =-.242515E+02  mag=    13.8131
 curvature:  -0.14 expect dE=-0.856E+01 dE for cont linesearch -0.276E-01
 trial: gam= 0.13126 g(F)=  0.628E+02 g(S)=  0.000E+00 ort = 0.910E+01 (trialstep = 0.825E+00)
 search vector abs. value=  0.722E+02
 bond charge predicted
       N       E                     dE             d eps       ncg     rms          rms(c)
DAV:   1    -0.100960235965E+04    0.68935E+02   -0.12373E+04  2016   0.277E+02    0.862E+01
RMM:   2    -0.109910464899E+04   -0.89502E+02   -0.91038E+02  2388   0.718E+01    0.747E+01
RMM:   3    -0.124964067026E+04   -0.15054E+03   -0.35596E+02  2482   0.375E+01    0.178E+02
RMM:   4    -0.115220986739E+04    0.97431E+02   -0.55279E+01  2094   0.192E+01    0.102E+02
RMM:   5    -0.115307471266E+04   -0.86485E+00   -0.27032E+01  2039   0.130E+01    0.110E+02
RMM:   6    -0.109753004001E+04    0.55545E+02   -0.33918E+01  2145   0.115E+01    0.599E+01
RMM:   7    -0.110029251735E+04   -0.27625E+01   -0.17984E+01  2168   0.823E+00    0.710E+01
RMM:   8    -0.108721389610E+04    0.13079E+02   -0.77399E+00  2261   0.560E+00    0.429E+01
RMM:   9    -0.108784549678E+04   -0.63160E+00   -0.50797E+00  2232   0.465E+00    0.443E+01
RMM:  10    -0.108780824629E+04    0.37250E-01   -0.38890E+00  2251   0.364E+00    0.424E+01
RMM:  11    -0.108467473236E+04    0.31335E+01   -0.16586E+00  2157   0.263E+00    0.274E+01
RMM:  12    -0.108538717848E+04   -0.71245E+00   -0.13124E+00  2119   0.236E+00    0.255E+01
RMM:  13    -0.108596682637E+04   -0.57965E+00   -0.14377E+00  2191   0.235E+00    0.254E+01
RMM:  14    -0.108613691718E+04   -0.17009E+00   -0.14766E+00  2191   0.257E+00    0.246E+01
RMM:  15    -0.108583098714E+04    0.30593E+00   -0.19381E+00  2209   0.283E+00    0.238E+01
RMM:  16    -0.108512897956E+04    0.70201E+00   -0.20427E+00  2206   0.312E+00    0.194E+01
RMM:  17    -0.108507192230E+04    0.57057E-01   -0.16563E+00  2403   0.249E+00    0.230E+01
RMM:  18    -0.108443504536E+04    0.63688E+00   -0.64979E-01  2227   0.172E+00    0.169E+01
RMM:  19    -0.108507815306E+04   -0.64311E+00   -0.69025E-01  2242   0.167E+00    0.222E+01
RMM:  20    -0.108430351174E+04    0.77464E+00   -0.43780E-01  2156   0.136E+00    0.149E+01
RMM:  21    -0.108409435085E+04    0.20916E+00   -0.40038E-01  2184   0.127E+00    0.993E+00
RMM:  22    -0.108405862127E+04    0.35730E-01   -0.18094E-01  2264   0.856E-01    0.664E+00
RMM:  23    -0.108431187957E+04   -0.25326E+00   -0.74038E-02  2189   0.547E-01    0.929E+00
RMM:  24    -0.108437047494E+04   -0.58595E-01   -0.36172E-02  2230   0.385E-01    0.944E+00
RMM:  25    -0.108436513466E+04    0.53403E-02   -0.77386E-02  2194   0.544E-01    0.660E+00
RMM:  26    -0.108444380232E+04   -0.78668E-01   -0.35815E-02  2360   0.350E-01    0.583E+00
RMM:  27    -0.108448413017E+04   -0.40328E-01   -0.11588E-02  2165   0.229E-01    0.513E+00
RMM:  28    -0.108458297584E+04   -0.98846E-01   -0.28293E-02  2052   0.336E-01    0.542E+00
RMM:  29    -0.108470888336E+04   -0.12591E+00   -0.48082E-02  2286   0.398E-01    0.521E+00
RMM:  30    -0.108480741202E+04   -0.98529E-01   -0.51430E-02  2321   0.406E-01    0.340E+00
RMM:  31    -0.108491294111E+04   -0.10553E+00   -0.23714E-02  2403   0.267E-01    0.291E+00
RMM:  32    -0.108493703065E+04   -0.24090E-01   -0.98112E-03  2271   0.194E-01    0.373E+00
RMM:  33    -0.108498586399E+04   -0.48833E-01   -0.98747E-03  2351   0.183E-01    0.278E+00
RMM:  34    -0.108500085714E+04   -0.14993E-01   -0.70044E-03  2392   0.164E-01    0.383E+00
RMM:  35    -0.108502818380E+04   -0.27327E-01   -0.70697E-03  2210   0.178E-01    0.378E+00
RMM:  36    -0.108504056616E+04   -0.12382E-01   -0.55249E-03  2249   0.173E-01    0.419E+00
RMM:  37    -0.108506428726E+04   -0.23721E-01   -0.76301E-03  2121   0.199E-01    0.463E+00
RMM:  38    -0.108506901216E+04   -0.47249E-02   -0.86884E-03  2197   0.215E-01    0.371E+00
RMM:  39    -0.108509659338E+04   -0.27581E-01   -0.80365E-03  2324   0.194E-01    0.458E+00
RMM:  40    -0.108508898689E+04    0.76065E-02   -0.90141E-03  2267   0.209E-01    0.257E+00
RMM:  41    -0.108509534996E+04   -0.63631E-02   -0.41959E-03  2340   0.137E-01    0.370E+00
RMM:  42    -0.108508886064E+04    0.64893E-02   -0.36967E-03  2275   0.133E-01    0.153E+00
RMM:  43    -0.108509328658E+04   -0.44259E-02   -0.20668E-03  2217   0.103E-01    0.341E+00
RMM:  44    -0.108509090759E+04    0.23790E-02   -0.19106E-03  2193   0.991E-02    0.666E-01
RMM:  45    -0.108509779484E+04   -0.68872E-02   -0.16639E-03  2053   0.942E-02    0.337E+00
RMM:  46    -0.108509573067E+04    0.20642E-02   -0.12157E-03  2117   0.801E-02    0.615E-01
RMM:  47    -0.108510357489E+04   -0.78442E-02   -0.13978E-03  2088   0.824E-02    0.324E+00
RMM:  48    -0.108510115895E+04    0.24159E-02   -0.11482E-03  2111   0.771E-02    0.777E-01
RMM:  49    -0.108510677472E+04   -0.56158E-02   -0.11836E-03  2018   0.801E-02    0.320E+00
RMM:  50    -0.108510424277E+04    0.25320E-02   -0.10956E-03  2023   0.774E-02    0.100E+00
RMM:  51    -0.108510924319E+04   -0.50004E-02   -0.12505E-03  1988   0.832E-02    0.317E+00
RMM:  52    -0.108510691273E+04    0.23305E-02   -0.11587E-03  1990   0.806E-02    0.133E+00
RMM:  53    -0.108511165818E+04   -0.47455E-02   -0.13846E-03  1969   0.892E-02    0.325E+00
RMM:  54    -0.108510924788E+04    0.24103E-02   -0.13427E-03  1975   0.881E-02    0.172E+00
RMM:  55    -0.108511405126E+04   -0.48034E-02   -0.15850E-03  1976   0.971E-02    0.338E+00
RMM:  56    -0.108511152832E+04    0.25229E-02   -0.16262E-03  1969   0.983E-02    0.210E+00
RMM:  57    -0.108511672204E+04   -0.51937E-02   -0.18877E-03  1990   0.107E-01    0.356E+00
RMM:  58    -0.108511390848E+04    0.28136E-02   -0.20116E-03  1984   0.110E-01    0.245E+00
RMM:  59    -0.108511914437E+04   -0.52359E-02   -0.21862E-03  1991   0.116E-01    0.373E+00
RMM:  60    -0.108511600628E+04    0.31381E-02   -0.23306E-03  1988   0.119E-01    0.273E+00
RMM:  61    -0.108512138986E+04   -0.53836E-02   -0.24864E-03  2002   0.124E-01    0.388E+00
RMM:  62    -0.108511780345E+04    0.35864E-02   -0.26599E-03  1991   0.128E-01    0.293E+00
RMM:  63    -0.108512324044E+04   -0.54370E-02   -0.27762E-03  2017   0.131E-01    0.399E+00
RMM:  64    -0.108511911657E+04    0.41239E-02   -0.29437E-03  2010   0.135E-01    0.305E+00
RMM:  65    -0.108512444822E+04   -0.53317E-02   -0.29649E-03  2004   0.135E-01    0.405E+00
RMM:  66    -0.108512008731E+04    0.43609E-02   -0.31171E-03  2015   0.138E-01    0.315E+00
RMM:  67    -0.108512501561E+04   -0.49283E-02   -0.31264E-03  2014   0.140E-01    0.408E+00
RMM:  68    -0.108512036282E+04    0.46528E-02   -0.31747E-03  2009   0.140E-01    0.316E+00
RMM:  69    -0.108512521353E+04   -0.48507E-02   -0.30778E-03  2008   0.138E-01    0.408E+00
RMM:  70    -0.108512075127E+04    0.44623E-02   -0.31939E-03  2026   0.140E-01    0.322E+00
RMM:  71    -0.108512558085E+04   -0.48296E-02   -0.31634E-03  2016   0.140E-01    0.409E+00
RMM:  72    -0.108512092671E+04    0.46541E-02   -0.32502E-03  2021   0.141E-01    0.322E+00
RMM:  73    -0.108512558871E+04   -0.46620E-02   -0.31740E-03  1999   0.140E-01    0.408E+00
RMM:  74    -0.108512099502E+04    0.45937E-02   -0.32876E-03  2013   0.142E-01    0.322E+00
RMM:  75    -0.108512548384E+04   -0.44888E-02   -0.31906E-03  2006   0.141E-01    0.407E+00
RMM:  76    -0.108512096839E+04    0.45154E-02   -0.32593E-03  2027   0.142E-01    0.323E+00
RMM:  77    -0.108512547100E+04   -0.45026E-02   -0.31912E-03  2022   0.141E-01    0.406E+00
RMM:  78    -0.108512091892E+04    0.45521E-02   -0.32733E-03  2022   0.142E-01    0.322E+00
RMM:  79    -0.108512529136E+04   -0.43724E-02   -0.32364E-03  2035   0.141E-01    0.405E+00
RMM:  80    -0.108512072766E+04    0.45637E-02   -0.33075E-03  2047   0.144E-01    0.319E+00
RMM:  81    -0.108512492509E+04   -0.41974E-02   -0.31112E-03  2031   0.139E-01    0.403E+00
RMM:  82    -0.108512063585E+04    0.42892E-02   -0.31366E-03  2029   0.139E-01    0.320E+00
RMM:  83    -0.108512497005E+04   -0.43342E-02   -0.30508E-03  2031   0.139E-01    0.403E+00
RMM:  84    -0.108512070365E+04    0.42664E-02   -0.31396E-03  2036   0.140E-01    0.321E+00
RMM:  85    -0.108512519964E+04   -0.44960E-02   -0.30841E-03  2006   0.138E-01    0.404E+00
RMM:  86    -0.108512095013E+04    0.42495E-02   -0.32408E-03  2030   0.141E-01    0.323E+00
RMM:  87    -0.108512532729E+04   -0.43772E-02   -0.31536E-03  2024   0.140E-01    0.405E+00
RMM:  88    -0.108512104309E+04    0.42842E-02   -0.32363E-03  2033   0.142E-01    0.326E+00
RMM:  89    -0.108512538096E+04   -0.43379E-02   -0.31360E-03  2029   0.141E-01    0.407E+00
RMM:  90    -0.108512111629E+04    0.42647E-02   -0.32189E-03  2043   0.142E-01    0.326E+00
RMM:  91    -0.108512539152E+04   -0.42752E-02   -0.32369E-03  2033   0.143E-01    0.405E+00
RMM:  92    -0.108512104482E+04    0.43467E-02   -0.32796E-03  2030   0.143E-01    0.325E+00
RMM:  93    -0.108512524682E+04   -0.42020E-02   -0.31454E-03  2034   0.140E-01    0.403E+00
RMM:  94    -0.108512089980E+04    0.43470E-02   -0.32086E-03  2037   0.141E-01    0.326E+00
RMM:  95    -0.108512537594E+04   -0.44761E-02   -0.30666E-03  2021   0.139E-01    0.406E+00
RMM:  96    -0.108512127028E+04    0.41057E-02   -0.32099E-03  2045   0.142E-01    0.331E+00
RMM:  97    -0.108512564777E+04   -0.43775E-02   -0.31249E-03  2021   0.140E-01    0.407E+00
RMM:  98    -0.108512140010E+04    0.42477E-02   -0.32711E-03  2034   0.143E-01    0.331E+00
RMM:  99    -0.108512563622E+04   -0.42361E-02   -0.32607E-03  2033   0.143E-01    0.405E+00
RMM: 100    -0.108512124985E+04    0.43864E-02   -0.33789E-03  2025   0.144E-01    0.327E+00
RMM: 101    -0.108512529037E+04   -0.40405E-02   -0.33297E-03  2025   0.143E-01    0.403E+00
RMM: 102    -0.108512102511E+04    0.42653E-02   -0.33853E-03  2035   0.144E-01    0.325E+00
RMM: 103    -0.108512507074E+04   -0.40456E-02   -0.32739E-03  2011   0.141E-01    0.401E+00
RMM: 104    -0.108512091244E+04    0.41583E-02   -0.33877E-03  2035   0.144E-01    0.322E+00
RMM: 105    -0.108512490504E+04   -0.39926E-02   -0.33041E-03  2020   0.142E-01    0.399E+00
RMM: 106    -0.108512081287E+04    0.40922E-02   -0.33851E-03  2029   0.143E-01    0.321E+00
RMM: 107    -0.108512481660E+04   -0.40037E-02   -0.32828E-03  2031   0.142E-01    0.399E+00
RMM: 108    -0.108512079843E+04    0.40182E-02   -0.33102E-03  2041   0.142E-01    0.322E+00
RMM: 109    -0.108512487827E+04   -0.40798E-02   -0.31651E-03  2005   0.139E-01    0.401E+00
RMM: 110    -0.108512089208E+04    0.39862E-02   -0.32422E-03  2027   0.141E-01    0.325E+00
RMM: 111    -0.108512499744E+04   -0.41054E-02   -0.31885E-03  2040   0.142E-01    0.402E+00
RMM: 112    -0.108512090200E+04    0.40954E-02   -0.31990E-03  2027   0.141E-01    0.326E+00
RMM: 113    -0.108512503055E+04   -0.41285E-02   -0.30919E-03  2009   0.138E-01    0.402E+00
RMM: 114    -0.108512097353E+04    0.40570E-02   -0.32444E-03  2049   0.142E-01    0.326E+00
RMM: 115    -0.108512504674E+04   -0.40732E-02   -0.31340E-03  2018   0.140E-01    0.402E+00
RMM: 116    -0.108512098240E+04    0.40643E-02   -0.31886E-03  2016   0.140E-01    0.326E+00
RMM: 117    -0.108512510407E+04   -0.41217E-02   -0.31036E-03  1993   0.138E-01    0.402E+00
RMM: 118    -0.108512106494E+04    0.40391E-02   -0.32348E-03  2037   0.141E-01    0.327E+00
RMM: 119    -0.108512514996E+04   -0.40850E-02   -0.32069E-03  2033   0.142E-01    0.403E+00
RMM: 120    -0.108512107030E+04    0.40797E-02   -0.33199E-03  2047   0.144E-01
   6 F= -.10933742E+04 E0= -.10933595E+04  d E =-.686543E+01  mag=    13.1115
 trial-energy change:   -6.865433  1 .order   -9.586250  -52.757889   33.585389
 step:   0.4657(harm=  0.5040)  dis= 0.12899  next Energy= -1100.911326 (dE=-0.144E+02)
 bond charge predicted
       N       E                     dE             d eps       ncg     rms          rms(c)
DAV:   1    -0.108502615119E+04    0.98999E-01   -0.23954E+03  1944   0.118E+02    0.176E+01
RMM:   2    -0.109246754907E+04   -0.74414E+01   -0.69530E+01  2091   0.212E+01    0.196E+01
RMM:   3    -0.110290631586E+04   -0.10439E+02   -0.20093E+01  2413   0.948E+00    0.512E+01
RMM:   4    -0.109507589934E+04    0.78304E+01   -0.58297E+00  2280   0.525E+00    0.287E+01
RMM:   5    -0.109274178993E+04    0.23341E+01   -0.18038E+00  2401   0.261E+00    0.101E+01
RMM:   6    -0.109335084685E+04   -0.60906E+00   -0.10538E+00  2279   0.199E+00    0.174E+01
RMM:   7    -0.109298666581E+04    0.36418E+00   -0.66123E-01  2274   0.162E+00    0.127E+01
RMM:   8    -0.109314300591E+04   -0.15634E+00   -0.73152E-01  2171   0.177E+00    0.128E+01
RMM:   9    -0.109366784314E+04   -0.52484E+00   -0.84765E-01  2248   0.175E+00    0.228E+01
RMM:  10    -0.109268779479E+04    0.98005E+00   -0.64757E-01  2230   0.170E+00    0.844E+00
RMM:  11    -0.109285084103E+04   -0.16305E+00   -0.34697E-01  2307   0.122E+00    0.106E+01
RMM:  12    -0.109278908284E+04    0.61758E-01   -0.24727E-01  2150   0.107E+00    0.820E+00
RMM:  13    -0.109273914207E+04    0.49941E-01   -0.85971E-02  2127   0.662E-01    0.707E+00
RMM:  14    -0.109272308160E+04    0.16060E-01   -0.64491E-02  2177   0.531E-01    0.630E+00
RMM:  15    -0.109272278880E+04    0.29281E-03   -0.37948E-02  2187   0.412E-01    0.546E+00
RMM:  16    -0.109273433852E+04   -0.11550E-01   -0.19721E-02  2187   0.287E-01    0.506E+00
RMM:  17    -0.109273426597E+04    0.72556E-04   -0.24970E-02  2189   0.317E-01    0.430E+00
RMM:  18    -0.109272495246E+04    0.93135E-02   -0.33988E-02  2217   0.356E-01    0.314E+00
RMM:  19    -0.109271877232E+04    0.61801E-02   -0.22329E-02  2122   0.292E-01    0.257E+00
RMM:  20    -0.109272088002E+04   -0.21077E-02   -0.63336E-03  2307   0.148E-01    0.224E+00
RMM:  21    -0.109272408506E+04   -0.32050E-02   -0.38771E-03  2299   0.112E-01    0.200E+00
RMM:  22    -0.109272410941E+04   -0.24351E-04   -0.76071E-03  2155   0.160E-01    0.172E+00
RMM:  23    -0.109271741936E+04    0.66900E-02   -0.10425E-02  2214   0.182E-01    0.120E+00
RMM:  24    -0.109271873609E+04   -0.13167E-02   -0.64157E-03  2339   0.134E-01    0.872E-01
RMM:  25    -0.109273842356E+04   -0.19687E-01   -0.40099E-03  2299   0.111E-01    0.737E-01
RMM:  26    -0.109276455727E+04   -0.26134E-01   -0.40102E-03  2268   0.115E-01    0.613E-01
RMM:  27    -0.109277665449E+04   -0.12097E-01   -0.22677E-03  2264   0.927E-02    0.452E-01
RMM:  28    -0.109280020722E+04   -0.23553E-01   -0.25474E-03  2306   0.819E-02    0.378E-01
RMM:  29    -0.109281662025E+04   -0.16413E-01   -0.16616E-03  2358   0.671E-02    0.297E-01
RMM:  30    -0.109282707624E+04   -0.10456E-01   -0.78009E-04  2407   0.394E-02    0.232E-01
RMM:  31    -0.109283666715E+04   -0.95909E-02   -0.58788E-04  2329   0.334E-02    0.196E-01
RMM:  32    -0.109284407980E+04   -0.74126E-02   -0.44978E-04  2373   0.280E-02    0.153E-01
RMM:  33    -0.109285230902E+04   -0.82292E-02   -0.52934E-04  2282   0.246E-02    0.131E-01
RMM:  34    -0.109285564634E+04   -0.33373E-02   -0.21074E-04  2304   0.192E-02    0.113E-01
RMM:  35    -0.109285750281E+04   -0.18565E-02   -0.10571E-04  2181   0.134E-02    0.903E-02
RMM:  36    -0.109285945399E+04   -0.19512E-02   -0.77954E-05  2121   0.106E-02    0.778E-02
RMM:  37    -0.109286193281E+04   -0.24788E-02   -0.11468E-04  2160   0.125E-02    0.583E-02
RMM:  38    -0.109286366109E+04   -0.17283E-02   -0.88401E-05  2178   0.106E-02    0.452E-02
RMM:  39    -0.109286472281E+04   -0.10617E-02   -0.49726E-05  2084   0.736E-03    0.389E-02
RMM:  40    -0.109286571375E+04   -0.99094E-03   -0.47214E-05  2139   0.792E-03    0.240E-02
RMM:  41    -0.109286641148E+04   -0.69773E-03   -0.36282E-05  1978   0.692E-03    0.220E-02
RMM:  42    -0.109286674622E+04   -0.33474E-03   -0.17066E-05  1808   0.474E-03    0.179E-02
RMM:  43    -0.109286705137E+04   -0.30515E-03   -0.14532E-05  1745   0.422E-03    0.135E-02
RMM:  44    -0.109286722339E+04   -0.17202E-03   -0.79277E-06  1587   0.355E-03    0.114E-02
RMM:  45    -0.109286730889E+04   -0.85506E-04   -0.42734E-06  1434   0.285E-03    0.101E-02
RMM:  46    -0.109286736543E+04   -0.56535E-04   -0.23940E-06  1286   0.219E-03    0.901E-03
RMM:  47    -0.109286743149E+04   -0.66064E-04   -0.31394E-06  1353   0.200E-03    0.702E-03
RMM:  48    -0.109286745187E+04   -0.20374E-04   -0.13085E-06  1199   0.171E-03    0.525E-03
RMM:  49    -0.109286748151E+04   -0.29640E-04   -0.15645E-06  1186   0.139E-03    0.394E-03
RMM:  50    -0.109286750031E+04   -0.18798E-04   -0.11515E-06  1141   0.141E-03    0.286E-03
RMM:  51    -0.109286751550E+04   -0.15196E-04   -0.11378E-06  1133   0.122E-03    0.199E-03
RMM:  52    -0.109286752778E+04   -0.12282E-04   -0.12243E-06  1166   0.133E-03    0.115E-03
RMM:  53    -0.109286753240E+04   -0.46187E-05   -0.80883E-07  1048   0.108E-03    0.800E-04
RMM:  54    -0.109286753607E+04   -0.36690E-05   -0.64026E-07  1048   0.105E-03    0.476E-04
RMM:  55    -0.109286753720E+04   -0.11275E-05   -0.43443E-07   949   0.864E-04    0.357E-04
RMM:  56    -0.109286753776E+04   -0.55923E-06   -0.28794E-07   865   0.732E-04
   7 F= -.11009894E+04 E0= -.11009781E+04  d E =-.144807E+02  mag=    12.0000
 curvature:  -0.28 expect dE=-0.100E+02 dE for cont linesearch -0.122E-03
 trial: gam= 0.59406 g(F)=  0.358E+02 g(S)=  0.000E+00 ort = 0.177E+00 (trialstep = 0.753E+00)
 search vector abs. value=  0.615E+02
 bond charge predicted
       N       E                     dE             d eps       ncg     rms          rms(c)
DAV:   1    -0.104144884629E+04    0.51419E+02   -0.87052E+03  1956   0.225E+02    0.640E+01
RMM:   2    -0.111692651332E+04   -0.75478E+02   -0.56007E+02  2318   0.573E+01    0.863E+01
RMM:   3    -0.122588632995E+04   -0.10896E+03   -0.22260E+02  2220   0.351E+01    0.145E+02
RMM:   4    -0.117772075439E+04    0.48166E+02   -0.81432E+01  2138   0.222E+01    0.117E+02
RMM:   5    -0.112557689980E+04    0.52144E+02   -0.20886E+01  2098   0.113E+01    0.673E+01
RMM:   6    -0.113548173925E+04   -0.99048E+01   -0.40140E+01  1966   0.153E+01    0.982E+01
RMM:   7    -0.111056565169E+04    0.24916E+02   -0.13773E+01  2165   0.816E+00    0.764E+01
RMM:   8    -0.110209821754E+04    0.84674E+01   -0.80537E+00  2154   0.596E+00    0.597E+01
RMM:   9    -0.109520626693E+04    0.68920E+01   -0.66692E+00  2166   0.517E+00    0.439E+01
RMM:  10    -0.109486152851E+04    0.34474E+00   -0.59549E+00  2148   0.501E+00    0.441E+01
RMM:  11    -0.109356697029E+04    0.12946E+01   -0.38517E+00  2160   0.403E+00    0.322E+01
RMM:  12    -0.109222457027E+04    0.13424E+01   -0.12667E+00  2182   0.243E+00    0.252E+01
RMM:  13    -0.109270267761E+04   -0.47811E+00   -0.10382E+00  2077   0.217E+00    0.263E+01
RMM:  14    -0.109251803103E+04    0.18465E+00   -0.59007E-01  2157   0.155E+00    0.203E+01
RMM:  15    -0.109292620285E+04   -0.40817E+00   -0.74314E-01  2163   0.173E+00    0.213E+01
RMM:  16    -0.109341927841E+04   -0.49308E+00   -0.83653E-01  2272   0.166E+00    0.216E+01
RMM:  17    -0.109310489805E+04    0.31438E+00   -0.60526E-01  2190   0.146E+00    0.150E+01
RMM:  18    -0.109357643834E+04   -0.47154E+00   -0.91164E-01  2189   0.198E+00    0.179E+01
RMM:  19    -0.109308114355E+04    0.49529E+00   -0.12100E+00  2287   0.213E+00    0.170E+01
RMM:  20    -0.109235430463E+04    0.72684E+00   -0.83138E-01  2346   0.173E+00    0.142E+01
RMM:  21    -0.109218772488E+04    0.16658E+00   -0.48002E-01  2352   0.137E+00    0.148E+01
RMM:  22    -0.109214856044E+04    0.39164E-01   -0.23581E-01  2265   0.101E+00    0.113E+01
RMM:  23    -0.109233466871E+04   -0.18611E+00   -0.22623E-01  2125   0.952E-01    0.900E+00
RMM:  24    -0.109250093453E+04   -0.16627E+00   -0.17296E-01  2178   0.813E-01    0.603E+00
RMM:  25    -0.109259171812E+04   -0.90784E-01   -0.82339E-02  2323   0.528E-01    0.459E+00
RMM:  26    -0.109261890361E+04   -0.27185E-01   -0.21949E-02  2249   0.280E-01    0.426E+00
RMM:  27    -0.109264861186E+04   -0.29708E-01   -0.11578E-02  2318   0.180E-01    0.399E+00
RMM:  28    -0.109285043403E+04   -0.20182E+00   -0.53679E-02  2225   0.364E-01    0.460E+00
RMM:  29    -0.109285059053E+04   -0.15649E-03   -0.16151E-02  2227   0.240E-01    0.305E+00
RMM:  30    -0.109289342081E+04   -0.42830E-01   -0.17964E-02  2339   0.239E-01    0.251E+00
RMM:  31    -0.109295385209E+04   -0.60431E-01   -0.17984E-02  2424   0.206E-01    0.212E+00
RMM:  32    -0.109297929818E+04   -0.25446E-01   -0.93573E-03  2465   0.143E-01    0.171E+00
RMM:  33    -0.109300390481E+04   -0.24607E-01   -0.93598E-03  2354   0.161E-01    0.145E+00
RMM:  34    -0.109302213987E+04   -0.18235E-01   -0.10791E-02  2400   0.174E-01    0.183E+00
RMM:  35    -0.109302200789E+04    0.13198E-03   -0.42603E-03  2558   0.958E-02    0.163E+00
RMM:  36    -0.109302084603E+04    0.11619E-02   -0.48633E-03  2474   0.107E-01    0.109E+00
RMM:  37    -0.109302072411E+04    0.12192E-03   -0.37266E-03  2308   0.117E-01    0.941E-01
RMM:  38    -0.109301708796E+04    0.36361E-02   -0.28344E-03  2427   0.972E-02    0.682E-01
RMM:  39    -0.109301758398E+04   -0.49601E-03   -0.12495E-03  2303   0.630E-02    0.433E-01
RMM:  40    -0.109301832189E+04   -0.73792E-03   -0.82106E-04  2360   0.498E-02    0.410E-01
RMM:  41    -0.109301860312E+04   -0.28123E-03   -0.39104E-04  2369   0.349E-02    0.361E-01
RMM:  42    -0.109301918414E+04   -0.58102E-03   -0.30155E-04  2497   0.239E-02    0.270E-01
RMM:  43    -0.109302004422E+04   -0.86008E-03   -0.18031E-04  2418   0.212E-02    0.193E-01
RMM:  44    -0.109302055004E+04   -0.50582E-03   -0.14350E-04  2502   0.163E-02    0.146E-01
RMM:  45    -0.109302111893E+04   -0.56889E-03   -0.68376E-05  2327   0.119E-02    0.127E-01
RMM:  46    -0.109302165788E+04   -0.53895E-03   -0.56836E-05  2270   0.101E-02    0.109E-01
RMM:  47    -0.109302219652E+04   -0.53864E-03   -0.60905E-05  2370   0.108E-02    0.960E-02
RMM:  48    -0.109302255593E+04   -0.35941E-03   -0.30643E-05  2144   0.795E-03    0.795E-02
RMM:  49    -0.109302310806E+04   -0.55213E-03   -0.57151E-05  2311   0.987E-03    0.566E-02
RMM:  50    -0.109302344129E+04   -0.33323E-03   -0.23467E-05  1947   0.682E-03    0.413E-02
RMM:  51    -0.109302371273E+04   -0.27144E-03   -0.17202E-05  1882   0.477E-03    0.335E-02
RMM:  52    -0.109302401153E+04   -0.29881E-03   -0.29168E-05  1966   0.887E-03    0.314E-02
RMM:  53    -0.109302403261E+04   -0.21075E-04   -0.63361E-06  1366   0.518E-03    0.197E-02
RMM:  54    -0.109302415286E+04   -0.12025E-03   -0.53374E-06  1450   0.286E-03    0.141E-02
RMM:  55    -0.109302427803E+04   -0.12517E-03   -0.61272E-06  1539   0.288E-03    0.983E-03
RMM:  56    -0.109302435000E+04   -0.71962E-04   -0.34347E-06  1392   0.226E-03    0.806E-03
RMM:  57    -0.109302444753E+04   -0.97538E-04   -0.80189E-06  1618   0.305E-03    0.799E-03
RMM:  58    -0.109302444823E+04   -0.69935E-06   -0.10315E-06  1195   0.194E-03
   8 F= -.11013341E+04 E0= -.11013257E+04  d E =-.344669E+00  mag=    11.9727
 trial-energy change:   -0.344669  1 .order   -2.118942  -27.056985   22.819102
 step:   0.3684(harm=  0.4085)  dis= 0.09961  next Energy= -1107.399225 (dE=-0.641E+01)
 bond charge predicted
       N       E                     dE             d eps       ncg     rms          rms(c)
DAV:   1    -0.109153581003E+04    0.14886E+01   -0.22649E+03  1944   0.110E+02    0.177E+01
RMM:   2    -0.109955948152E+04   -0.80237E+01   -0.68311E+01  2191   0.205E+01    0.203E+01
RMM:   3    -0.110599442451E+04   -0.64349E+01   -0.18079E+01  2441   0.901E+00    0.460E+01
RMM:   4    -0.110047812069E+04    0.55163E+01   -0.50310E+00  2271   0.490E+00    0.281E+01
RMM:   5    -0.109931576178E+04    0.11624E+01   -0.19490E+00  2414   0.269E+00    0.134E+01
RMM:   6    -0.109973491573E+04   -0.41915E+00   -0.12299E+00  2249   0.228E+00    0.206E+01
RMM:   7    -0.109915322931E+04    0.58169E+00   -0.74722E-01  2205   0.179E+00    0.123E+01
RMM:   8    -0.109917429494E+04   -0.21066E-01   -0.55610E-01  2191   0.158E+00    0.908E+00
RMM:   9    -0.109926012756E+04   -0.85833E-01   -0.38648E-01  2230   0.125E+00    0.892E+00
RMM:  10    -0.109914957476E+04    0.11055E+00   -0.25932E-01  2119   0.111E+00    0.513E+00
RMM:  11    -0.109917374281E+04   -0.24168E-01   -0.19064E-01  2234   0.883E-01    0.489E+00
RMM:  12    -0.109919192633E+04   -0.18184E-01   -0.17849E-01  2179   0.879E-01    0.612E+00
RMM:  13    -0.109916804537E+04    0.23881E-01   -0.14406E-01  2204   0.744E-01    0.495E+00
RMM:  14    -0.109910803005E+04    0.60015E-01   -0.91514E-02  2198   0.655E-01    0.183E+00
RMM:  15    -0.109911525522E+04   -0.72252E-02   -0.35428E-02  2202   0.394E-01    0.151E+00
RMM:  16    -0.109911403436E+04    0.12209E-02   -0.14947E-02  2200   0.261E-01    0.130E+00
RMM:  17    -0.109911240781E+04    0.16265E-02   -0.80961E-03  2111   0.196E-01    0.774E-01
RMM:  18    -0.109911247259E+04   -0.64780E-04   -0.35325E-03  2256   0.130E-01    0.501E-01
RMM:  19    -0.109911323634E+04   -0.76375E-03   -0.20196E-03  2384   0.881E-02    0.375E-01
RMM:  20    -0.109911389655E+04   -0.66022E-03   -0.12152E-03  2266   0.699E-02    0.307E-01
RMM:  21    -0.109911411697E+04   -0.22042E-03   -0.52830E-04  2181   0.477E-02    0.258E-01
RMM:  22    -0.109911420378E+04   -0.86803E-04   -0.27547E-04  2226   0.336E-02    0.218E-01
RMM:  23    -0.109911435419E+04   -0.15041E-03   -0.19443E-04  2270   0.272E-02    0.175E-01
RMM:  24    -0.109911457024E+04   -0.21605E-03   -0.19737E-04  2248   0.278E-02    0.149E-01
RMM:  25    -0.109911479696E+04   -0.22671E-03   -0.13597E-04  2299   0.225E-02    0.117E-01
RMM:  26    -0.109911493498E+04   -0.13803E-03   -0.76077E-05  2089   0.167E-02    0.903E-02
RMM:  27    -0.109911506691E+04   -0.13193E-03   -0.35846E-05  1992   0.109E-02    0.600E-02
RMM:  28    -0.109911521945E+04   -0.15253E-03   -0.31610E-05  1860   0.103E-02    0.446E-02
RMM:  29    -0.109911532094E+04   -0.10150E-03   -0.17579E-05  1616   0.799E-03    0.346E-02
RMM:  30    -0.109911539280E+04   -0.71853E-04   -0.78283E-06  1493   0.513E-03    0.246E-02
RMM:  31    -0.109911546383E+04   -0.71029E-04   -0.56851E-06  1390   0.466E-03    0.168E-02
RMM:  32    -0.109911555658E+04   -0.92757E-04   -0.52373E-06  1450   0.411E-03    0.140E-02
RMM:  33    -0.109911562272E+04   -0.66133E-04   -0.33896E-06  1355   0.326E-03    0.117E-02
RMM:  34    -0.109911569522E+04   -0.72507E-04   -0.33186E-06  1357   0.314E-03    0.757E-03
RMM:  35    -0.109911579633E+04   -0.10110E-03   -0.47761E-06  1504   0.271E-03    0.709E-03
RMM:  36    -0.109911584104E+04   -0.44709E-04   -0.21802E-06  1279   0.232E-03    0.624E-03
RMM:  37    -0.109911586490E+04   -0.23867E-04   -0.15613E-06  1223   0.216E-03    0.479E-03
RMM:  38    -0.109911590228E+04   -0.37378E-04   -0.17302E-06  1242   0.177E-03    0.239E-03
RMM:  39    -0.109911593982E+04   -0.37542E-04   -0.22421E-06  1287   0.177E-03    0.279E-03
RMM:  40    -0.109911595558E+04   -0.15764E-04   -0.14865E-06  1177   0.157E-03    0.207E-03
RMM:  41    -0.109911596336E+04   -0.77778E-05   -0.10060E-06  1105   0.137E-03    0.174E-03
RMM:  42    -0.109911596736E+04   -0.39957E-05   -0.65166E-07  1034   0.115E-03    0.159E-03
RMM:  43    -0.109911597058E+04   -0.32220E-05   -0.49819E-07   990   0.999E-04    0.116E-03
RMM:  44    -0.109911597310E+04   -0.25204E-05   -0.42114E-07   983   0.867E-04    0.781E-04
RMM:  45    -0.109911597444E+04   -0.13442E-05   -0.34695E-07   934   0.788E-04    0.458E-04
RMM:  46    -0.109911597488E+04   -0.43985E-06   -0.24355E-07   877   0.673E-04
   9 F= -.11073505E+04 E0= -.11073400E+04  d E =-.636105E+01  mag=    12.0000
 curvature:  -0.34 expect dE=-0.683E+01 dE for cont linesearch -0.507E-06
 trial: gam= 0.53911 g(F)=  0.198E+02 g(S)=  0.000E+00 ort =-0.951E-02 (trialstep = 0.676E+00)
 search vector abs. value=  0.377E+02
 bond charge predicted
       N       E                     dE             d eps       ncg     rms          rms(c)
DAV:   1    -0.107958872258E+04    0.19527E+02   -0.51669E+03  1992   0.168E+02    0.341E+01
RMM:   2    -0.110226152864E+04   -0.22673E+02   -0.23556E+02  2165   0.379E+01    0.321E+01
RMM:   3    -0.112736811177E+04   -0.25107E+02   -0.51741E+01  2334   0.162E+01    0.744E+01
RMM:   4    -0.110911830787E+04    0.18250E+02   -0.16251E+01  2293   0.894E+00    0.417E+01
RMM:   5    -0.110368057883E+04    0.54377E+01   -0.56771E+00  2366   0.469E+00    0.225E+01
RMM:   6    -0.110419051587E+04   -0.50994E+00   -0.27918E+00  2271   0.325E+00    0.271E+01
RMM:   7    -0.110360219235E+04    0.58832E+00   -0.14815E+00  2207   0.252E+00    0.206E+01
RMM:   8    -0.110332948639E+04    0.27271E+00   -0.65553E-01  2324   0.156E+00    0.175E+01
RMM:   9    -0.110339404272E+04   -0.64556E-01   -0.64024E-01  2211   0.157E+00    0.187E+01
RMM:  10    -0.110331626335E+04    0.77779E-01   -0.87794E-01  2275   0.187E+00    0.147E+01
RMM:  11    -0.110310856459E+04    0.20770E+00   -0.76677E-01  2284   0.189E+00    0.155E+01
RMM:  12    -0.110303799045E+04    0.70574E-01   -0.52222E-01  2388   0.150E+00    0.890E+00
RMM:  13    -0.110331804444E+04   -0.28005E+00   -0.50999E-01  2231   0.146E+00    0.193E+01
RMM:  14    -0.110301518581E+04    0.30286E+00   -0.41451E-01  2187   0.130E+00    0.913E+00
RMM:  15    -0.110298604850E+04    0.29137E-01   -0.27444E-01  2146   0.117E+00    0.723E+00
RMM:  16    -0.110294518959E+04    0.40859E-01   -0.11954E-01  2106   0.774E-01    0.334E+00
RMM:  17    -0.110297369805E+04   -0.28508E-01   -0.49720E-02  2166   0.488E-01    0.248E+00
RMM:  18    -0.110298157505E+04   -0.78770E-02   -0.23218E-02  2300   0.306E-01    0.208E+00
RMM:  19    -0.110298236186E+04   -0.78681E-03   -0.20780E-02  2332   0.283E-01    0.151E+00
RMM:  20    -0.110298163808E+04    0.72379E-03   -0.13802E-02  2208   0.243E-01    0.116E+00
RMM:  21    -0.110298363993E+04   -0.20018E-02   -0.70572E-03  2437   0.159E-01    0.876E-01
RMM:  22    -0.110298630235E+04   -0.26624E-02   -0.50609E-03  2220   0.144E-01    0.953E-01
RMM:  23    -0.110298540672E+04    0.89563E-03   -0.33127E-03  2253   0.116E-01    0.707E-01
RMM:  24    -0.110298573415E+04   -0.32743E-03   -0.22665E-03  2346   0.876E-02    0.605E-01
RMM:  25    -0.110298538671E+04    0.34744E-03   -0.13790E-03  2283   0.710E-02    0.461E-01
RMM:  26    -0.110298588367E+04   -0.49696E-03   -0.10550E-03  2367   0.588E-02    0.399E-01
RMM:  27    -0.110298605529E+04   -0.17162E-03   -0.81228E-04  2238   0.541E-02    0.305E-01
RMM:  28    -0.110298628264E+04   -0.22735E-03   -0.32563E-04  2341   0.327E-02    0.256E-01
RMM:  29    -0.110298653951E+04   -0.25687E-03   -0.24352E-04  2322   0.279E-02    0.231E-01
RMM:  30    -0.110298673485E+04   -0.19534E-03   -0.19063E-04  2354   0.241E-02    0.173E-01
RMM:  31    -0.110298694101E+04   -0.20617E-03   -0.91867E-05  2246   0.143E-02    0.145E-01
RMM:  32    -0.110298708511E+04   -0.14410E-03   -0.64429E-05  2144   0.128E-02    0.123E-01
RMM:  33    -0.110298721791E+04   -0.13280E-03   -0.86510E-05  2329   0.144E-02    0.941E-02
RMM:  34    -0.110298728713E+04   -0.69216E-04   -0.63172E-05  2237   0.125E-02    0.735E-02
RMM:  35    -0.110298733092E+04   -0.43792E-04   -0.53048E-05  2177   0.109E-02    0.505E-02
RMM:  36    -0.110298735763E+04   -0.26704E-04   -0.27379E-05  1972   0.833E-03    0.427E-02
RMM:  37    -0.110298737195E+04   -0.14320E-04   -0.11702E-05  1606   0.556E-03    0.337E-02
RMM:  38    -0.110298739547E+04   -0.23527E-04   -0.85346E-06  1611   0.472E-03    0.275E-02
RMM:  39    -0.110298741976E+04   -0.24288E-04   -0.69679E-06  1480   0.484E-03    0.208E-02
RMM:  40    -0.110298745983E+04   -0.40066E-04   -0.82000E-06  1640   0.461E-03    0.126E-02
RMM:  41    -0.110298749852E+04   -0.38695E-04   -0.42171E-06  1435   0.294E-03    0.769E-03
RMM:  42    -0.110298752997E+04   -0.31443E-04   -0.23162E-06  1283   0.243E-03    0.473E-03
RMM:  43    -0.110298755027E+04   -0.20303E-04   -0.15645E-06  1220   0.195E-03    0.400E-03
RMM:  44    -0.110298757076E+04   -0.20490E-04   -0.13841E-06  1202   0.174E-03    0.314E-03
RMM:  45    -0.110298758699E+04   -0.16232E-04   -0.11550E-06  1179   0.149E-03    0.232E-03
RMM:  46    -0.110298759621E+04   -0.92215E-05   -0.83954E-07  1110   0.129E-03    0.182E-03
RMM:  47    -0.110298760439E+04   -0.81765E-05   -0.77343E-07  1090   0.111E-03    0.128E-03
RMM:  48    -0.110298761046E+04   -0.60747E-05   -0.65813E-07  1069   0.106E-03    0.796E-04
RMM:  49    -0.110298761289E+04   -0.24246E-05   -0.48043E-07   995   0.907E-04    0.612E-04
RMM:  50    -0.110298761532E+04   -0.24306E-05   -0.41327E-07   957   0.806E-04    0.383E-04
RMM:  51    -0.110298761667E+04   -0.13478E-05   -0.32765E-07   922   0.755E-04    0.351E-04
RMM:  52    -0.110298761712E+04   -0.45335E-06   -0.22084E-07   833   0.633E-04
  10 F= -.11113151E+04 E0= -.11113140E+04  d E =-.396460E+01  mag=    11.9981
 trial-energy change:   -3.964603  1 .order   -3.689079  -13.393291    6.015133
 step:   0.4785(harm=  0.4666)  dis= 0.14854  next Energy= -1112.187332 (dE=-0.484E+01)
 bond charge predicted
       N       E                     dE             d eps       ncg     rms          rms(c)
DAV:   1    -0.110281436073E+04    0.17326E+00   -0.44195E+02  1944   0.477E+01    0.615E+00
RMM:   2    -0.110376969372E+04   -0.95533E+00   -0.97661E+00  2158   0.729E+00    0.502E+00
RMM:   3    -0.110441572804E+04   -0.64603E+00   -0.19186E+00  2408   0.304E+00    0.138E+01
[...]
RMM:   6    -0.112913826713E+04   -0.37329E-04   -0.17932E-04  1998   0.276E-02    0.993E-02
RMM:   7    -0.112913833697E+04   -0.69837E-04   -0.61540E-05  2110   0.166E-02    0.977E-02
RMM:   8    -0.112913834365E+04   -0.66849E-05   -0.52288E-05  1851   0.154E-02    0.997E-02
RMM:   9    -0.112913836974E+04   -0.26089E-04   -0.50824E-05  1922   0.154E-02    0.984E-02
RMM:  10    -0.112913835308E+04    0.16659E-04   -0.25331E-05  1641   0.114E-02    0.624E-02
RMM:  11    -0.112913835650E+04   -0.34128E-05   -0.17949E-05  1524   0.942E-03    0.594E-02
RMM:  12    -0.112913835292E+04    0.35741E-05   -0.64959E-06  1378   0.597E-03    0.518E-02
RMM:  13    -0.112913834982E+04    0.31000E-05   -0.24143E-06  1310   0.395E-03    0.245E-02
RMM:  14    -0.112913835351E+04   -0.36858E-05   -0.88576E-07  1171   0.239E-03    0.108E-02
RMM:  15    -0.112913835592E+04   -0.24111E-05   -0.75480E-07  1147   0.229E-03    0.202E-02
RMM:  16    -0.112913835504E+04    0.87655E-06   -0.35612E-07  1123   0.159E-03
 411 F= -.11376072E+04 E0= -.11375872E+04  d E =-.674440E-03  mag=    12.4433
 curvature:  -4.05 expect dE=-0.171E-01 dE for cont linesearch -0.672E-06
 trial: gam= 0.99862 g(F)=  0.423E-02 g(S)=  0.000E+00 ort = 0.122E-03 (trialstep = 0.177E+00)
 search vector abs. value=  0.936E-01
 bond charge predicted
       N       E                     dE             d eps       ncg     rms          rms(c)
DAV:   1    -0.112913755825E+04    0.79767E-03   -0.61188E-01  1944   0.170E+00    0.176E-01
RMM:   2    -0.112913899024E+04   -0.14320E-02   -0.12456E-02  2278   0.233E-01    0.595E-01
RMM:   3    -0.112913888187E+04    0.10838E-03   -0.14778E-03  2263   0.928E-02    0.697E-01
RMM:   4    -0.112913903102E+04   -0.14915E-03   -0.88953E-04  2372   0.637E-02    0.586E-01
RMM:   5    -0.112913871453E+04    0.31649E-03   -0.27956E-04  2085   0.374E-02    0.164E-01
RMM:   6    -0.112913887303E+04   -0.15850E-03   -0.14922E-04  1993   0.258E-02    0.130E-01
RMM:   7    -0.112913891338E+04   -0.40350E-04   -0.66009E-05  2133   0.172E-02    0.133E-01
RMM:   8    -0.112913891954E+04   -0.61613E-05   -0.63009E-05  1880   0.171E-02    0.152E-01
RMM:   9    -0.112913892095E+04   -0.14137E-05   -0.57799E-05  1941   0.161E-02    0.956E-02
RMM:  10    -0.112913892587E+04   -0.49217E-05   -0.34927E-05  1685   0.132E-02    0.882E-02
RMM:  11    -0.112913892888E+04   -0.30016E-05   -0.22616E-05  1585   0.107E-02    0.885E-02
RMM:  12    -0.112913892192E+04    0.69541E-05   -0.70651E-06  1389   0.691E-03    0.677E-02
RMM:  13    -0.112913892000E+04    0.19181E-05   -0.35268E-06  1316   0.451E-03    0.475E-02
RMM:  14    -0.112913892143E+04   -0.14302E-05   -0.16342E-06  1263   0.334E-03    0.123E-02
RMM:  15    -0.112913892708E+04   -0.56427E-05   -0.97185E-07  1171   0.244E-03    0.180E-02
RMM:  16    -0.112913892814E+04   -0.10597E-05   -0.64098E-07  1133   0.212E-03    0.190E-02
RMM:  17    -0.112913892765E+04    0.48322E-06   -0.25208E-07  1103   0.135E-03
 412 F= -.11376078E+04 E0= -.11375878E+04  d E =-.593234E-03  mag=    12.4437
 trial-energy change:   -0.000593  1 .order   -0.000597   -0.000770   -0.000423
 step:   0.3927(harm=  0.3927)  dis= 0.00446  next Energy= -1137.608069 (dE=-0.855E-03)
 bond charge predicted
       N       E                     dE             d eps       ncg     rms          rms(c)
DAV:   1    -0.112913716014E+04    0.17680E-02   -0.90891E-01  1944   0.208E+00    0.214E-01
RMM:   2    -0.112913919331E+04   -0.20332E-02   -0.18448E-02  2272   0.284E-01    0.627E-01
RMM:   3    -0.112913954517E+04   -0.35186E-03   -0.21930E-03  2257   0.113E-01    0.107E+00
RMM:   4    -0.112913877359E+04    0.77158E-03   -0.13884E-03  2361   0.803E-02    0.527E-01
RMM:   5    -0.112913891391E+04   -0.14033E-03   -0.33660E-04  2121   0.401E-02    0.262E-01
RMM:   6    -0.112913908993E+04   -0.17602E-03   -0.20103E-04  2059   0.303E-02    0.155E-01
RMM:   7    -0.112913919755E+04   -0.10761E-03   -0.11383E-04  2179   0.236E-02    0.186E-01
RMM:   8    -0.112913916420E+04    0.33345E-04   -0.88003E-05  1982   0.201E-02    0.184E-01
RMM:   9    -0.112913918297E+04   -0.18764E-04   -0.85949E-05  2093   0.195E-02    0.973E-02
RMM:  10    -0.112913922523E+04   -0.42262E-04   -0.62840E-05  1804   0.181E-02    0.165E-01
RMM:  11    -0.112913919266E+04    0.32574E-04   -0.39214E-05  1753   0.144E-02    0.188E-01
RMM:  12    -0.112913914921E+04    0.43445E-04   -0.11380E-05  1457   0.827E-03    0.106E-01
RMM:  13    -0.112913917023E+04   -0.21021E-04   -0.47168E-06  1341   0.510E-03    0.279E-02
RMM:  14    -0.112913919964E+04   -0.29412E-04   -0.46396E-06  1381   0.507E-03    0.417E-02
RMM:  15    -0.112913920468E+04   -0.50407E-05   -0.30833E-06  1288   0.453E-03    0.495E-02
RMM:  16    -0.112913920034E+04    0.43480E-05   -0.95679E-07  1145   0.273E-03    0.314E-02
RMM:  17    -0.112913920317E+04   -0.28315E-05   -0.39435E-07  1123   0.175E-03    0.150E-02
RMM:  18    -0.112913920691E+04   -0.37392E-05   -0.29988E-07  1060   0.119E-03    0.455E-03
RMM:  19    -0.112913920907E+04   -0.21633E-05   -0.25316E-07  1057   0.117E-03    0.500E-03
RMM:  20    -0.112913920990E+04   -0.83233E-06   -0.14175E-07   995   0.870E-04
 413 F= -.11376081E+04 E0= -.11375881E+04  d E =-.886102E-03  mag=    12.4444
 curvature:  -4.22 expect dE=-0.152E-01 dE for cont linesearch -0.262E-05
 trial: gam= 0.84983 g(F)=  0.359E-02 g(S)=  0.000E+00 ort = 0.241E-03 (trialstep = 0.220E+00)
 search vector abs. value=  0.716E-01
 bond charge predicted
       N       E                     dE             d eps       ncg     rms          rms(c)
DAV:   1    -0.112913783588E+04    0.13732E-02   -0.71734E-01  1944   0.185E+00    0.197E-01
RMM:   2    -0.112913997447E+04   -0.21386E-02   -0.14970E-02  2291   0.257E-01    0.872E-01
RMM:   3    -0.112913919120E+04    0.78326E-03   -0.19622E-03  2253   0.108E-01    0.573E-01
RMM:   4    -0.112914044767E+04   -0.12565E-02   -0.11868E-03  2370   0.749E-02    0.121E+00
RMM:   5    -0.112913856001E+04    0.18877E-02   -0.82064E-04  2100   0.588E-02    0.325E-01
RMM:   6    -0.112913916217E+04   -0.60217E-03   -0.25719E-04  2016   0.348E-02    0.121E-01
RMM:   7    -0.112913949211E+04   -0.32994E-03   -0.15286E-04  2069   0.269E-02    0.300E-01
RMM:   8    -0.112913941400E+04    0.78111E-04   -0.11979E-04  1984   0.247E-02    0.284E-01
RMM:   9    -0.112913935495E+04    0.59054E-04   -0.64169E-05  1940   0.164E-02    0.111E-01
RMM:  10    -0.112913944139E+04   -0.86437E-04   -0.53183E-05  1811   0.166E-02    0.128E-01
RMM:  11    -0.112913944697E+04   -0.55854E-05   -0.30274E-05  1691   0.131E-02    0.127E-01
RMM:  12    -0.112913943119E+04    0.15784E-04   -0.13995E-05  1481   0.879E-03    0.817E-02
RMM:  13    -0.112913944169E+04   -0.10501E-04   -0.65042E-06  1382   0.584E-03    0.506E-02
RMM:  14    -0.112913944764E+04   -0.59504E-05   -0.42765E-06  1364   0.514E-03    0.192E-02
RMM:  15    -0.112913945290E+04   -0.52636E-05   -0.17692E-06  1260   0.347E-03    0.184E-02
RMM:  16    -0.112913945345E+04   -0.54364E-06   -0.61272E-07  1140   0.212E-03
 414 F= -.11376086E+04 E0= -.11375886E+04  d E =-.546829E-03  mag=    12.4446
 trial-energy change:   -0.000547  1 .order   -0.000545   -0.000835   -0.000255
 step:   0.3166(harm=  0.3166)  dis= 0.00311  next Energy= -1137.608701 (dE=-0.601E-03)
 bond charge predicted
       N       E                     dE             d eps       ncg     rms          rms(c)
DAV:   1    -0.112913908710E+04    0.36580E-03   -0.13792E-01  1956   0.807E-01    0.850E-02
RMM:   2    -0.112913942232E+04   -0.33522E-03   -0.28562E-03  2289   0.112E-01    0.295E-01
RMM:   3    -0.112913940036E+04    0.21962E-04   -0.35598E-04  2242   0.460E-02    0.341E-01
RMM:   4    -0.112913945216E+04   -0.51800E-04   -0.22933E-04  2300   0.339E-02    0.386E-01
RMM:   5    -0.112913929301E+04    0.15914E-03   -0.11397E-04  1919   0.230E-02    0.753E-02
RMM:   6    -0.112913937477E+04   -0.81758E-04   -0.43260E-05  1746   0.147E-02    0.528E-02
RMM:   7    -0.112913939865E+04   -0.23878E-04   -0.18979E-05  1718   0.943E-03    0.897E-02
RMM:   8    -0.112913938967E+04    0.89825E-05   -0.16760E-05  1613   0.908E-03    0.757E-02
RMM:   9    -0.112913939321E+04   -0.35464E-05   -0.13660E-05  1505   0.824E-03    0.429E-02
RMM:  10    -0.112913940557E+04   -0.12359E-04   -0.11354E-05  1472   0.790E-03    0.777E-02
RMM:  11    -0.112913939749E+04    0.80884E-05   -0.74064E-06  1405   0.659E-03    0.759E-02
RMM:  12    -0.112913939287E+04    0.46124E-05   -0.25647E-06  1290   0.405E-03    0.409E-02
RMM:  13    -0.112913939855E+04   -0.56768E-05   -0.12540E-06  1201   0.284E-03    0.170E-02
RMM:  14    -0.112913940268E+04   -0.41310E-05   -0.88843E-07  1168   0.239E-03    0.128E-02
RMM:  15    -0.112913940341E+04   -0.72541E-06   -0.38419E-07  1114   0.170E-03
 415 F= -.11376087E+04 E0= -.11375887E+04  d E =-.611767E-03  mag=    12.4445
 curvature:  -2.99 expect dE=-0.911E-02 dE for cont linesearch -0.148E-06
 trial: gam= 0.93233 g(F)=  0.305E-02 g(S)=  0.000E+00 ort = 0.596E-04 (trialstep = 0.239E+00)
 search vector abs. value=  0.654E-01
 bond charge predicted
       N       E                     dE             d eps       ncg     rms          rms(c)
DAV:   1    -0.112913852610E+04    0.87658E-03   -0.77813E-01  1944   0.191E+00    0.205E-01
RMM:   2    -0.112914095814E+04   -0.24320E-02   -0.15985E-02  2304   0.267E-01    0.102E+00
RMM:   3    -0.112913950882E+04    0.14493E-02   -0.20634E-03  2270   0.111E-01    0.469E-01
RMM:   4    -0.112914070039E+04   -0.11916E-02   -0.11351E-03  2344   0.750E-02    0.679E-01
RMM:   5    -0.112913994727E+04    0.75313E-03   -0.40809E-04  2147   0.442E-02    0.208E-01
RMM:   6    -0.112914021094E+04   -0.26367E-03   -0.21805E-04  2014   0.322E-02    0.169E-01
RMM:   7    -0.112914026289E+04   -0.51952E-04   -0.95354E-05  2182   0.208E-02    0.141E-01
RMM:   8    -0.112914026422E+04   -0.13299E-05   -0.77167E-05  1925   0.188E-02    0.145E-01
RMM:   9    -0.112914029263E+04   -0.28413E-04   -0.81558E-05  2005   0.197E-02    0.181E-01
RMM:  10    -0.112914026419E+04    0.28440E-04   -0.55731E-05  1782   0.160E-02    0.145E-01
RMM:  11    -0.112914025103E+04    0.13162E-04   -0.24824E-05  1584   0.111E-02    0.434E-02
RMM:  12    -0.112914028636E+04   -0.35333E-04   -0.13084E-05  1523   0.898E-03    0.883E-02
RMM:  13    -0.112914027336E+04    0.13001E-04   -0.67487E-06  1411   0.691E-03    0.731E-02
RMM:  14    -0.112914026880E+04    0.45606E-05   -0.15672E-06  1226   0.339E-03    0.262E-02
RMM:  15    -0.112914028015E+04   -0.11355E-04   -0.11558E-06  1187   0.261E-03    0.180E-02
RMM:  16    -0.112914028538E+04   -0.52263E-05   -0.10895E-06  1172   0.259E-03    0.286E-02
RMM:  17    -0.112914028389E+04    0.14914E-05   -0.49223E-07  1128   0.191E-03    0.224E-02
RMM:  18    -0.112914028455E+04   -0.66048E-06   -0.18762E-07  1071   0.115E-03
 416 F= -.11376093E+04 E0= -.11375892E+04  d E =-.561577E-03  mag=    12.4454
 trial-energy change:   -0.000562  1 .order   -0.000553   -0.000744   -0.000362
 step:   0.4209(harm=  0.4661)  dis= 0.00386  next Energy= -1137.609415 (dE=-0.702E-03)
 bond charge predicted
       N       E                     dE             d eps       ncg     rms          rms(c)
DAV:   1    -0.112913970958E+04    0.57431E-03   -0.44692E-01  1944   0.145E+00    0.156E-01
RMM:   2    -0.112914116393E+04   -0.14544E-02   -0.91994E-03  2306   0.202E-01    0.842E-01
RMM:   3    -0.112914008951E+04    0.10744E-02   -0.12200E-03  2268   0.848E-02    0.286E-01
RMM:   4    -0.112914079557E+04   -0.70606E-03   -0.57292E-04  2328   0.547E-02    0.276E-01
RMM:   5    -0.112914063928E+04    0.15629E-03   -0.13613E-04  2119   0.253E-02    0.224E-01
RMM:   6    -0.112914066020E+04   -0.20920E-04   -0.86557E-05  1899   0.193E-02    0.179E-01
RMM:   7    -0.112914068212E+04   -0.21917E-04   -0.56877E-05  1928   0.161E-02    0.963E-02
RMM:   8    -0.112914072193E+04   -0.39810E-04   -0.53900E-05  1831   0.165E-02    0.177E-01
RMM:   9    -0.112914069701E+04    0.24915E-04   -0.46563E-05  1867   0.151E-02    0.177E-01
RMM:  10    -0.112914067382E+04    0.23191E-04   -0.28624E-05  1662   0.117E-02    0.986E-02
RMM:  11    -0.112914069700E+04   -0.23176E-04   -0.16627E-05  1512   0.934E-03    0.470E-02
RMM:  12    -0.112914072188E+04   -0.24881E-04   -0.11150E-05  1506   0.850E-03    0.892E-02
RMM:  13    -0.112914070486E+04    0.17023E-04   -0.46255E-06  1353   0.578E-03    0.751E-02
RMM:  14    -0.112914070110E+04    0.37590E-05   -0.13124E-06  1203   0.314E-03    0.239E-02
RMM:  15    -0.112914071373E+04   -0.12633E-04   -0.11961E-06  1187   0.266E-03    0.165E-02
RMM:  16    -0.112914071854E+04   -0.48097E-05   -0.98895E-07  1158   0.249E-03    0.242E-02
RMM:  17    -0.112914071722E+04    0.13192E-05   -0.35695E-07  1115   0.163E-03    0.193E-02
RMM:  18    -0.112914071755E+04   -0.32771E-06   -0.13058E-07  1049   0.993E-04

===================================================================================
=   BAD TERMINATION OF ONE OF YOUR APPLICATION PROCESSES
=   RANK 0 PID 8030 RUNNING AT b030
=   KILLED BY SIGNAL: 9 (Killed)
===================================================================================

===================================================================================
=   BAD TERMINATION OF ONE OF YOUR APPLICATION PROCESSES
=   RANK 1 PID 8031 RUNNING AT b030
=   KILLED BY SIGNAL: 9 (Killed)
===================================================================================

===================================================================================
=   BAD TERMINATION OF ONE OF YOUR APPLICATION PROCESSES
=   RANK 2 PID 8032 RUNNING AT b030
=   KILLED BY SIGNAL: 9 (Killed)
===================================================================================

===================================================================================
=   BAD TERMINATION OF ONE OF YOUR APPLICATION PROCESSES
=   RANK 3 PID 8033 RUNNING AT b030
=   KILLED BY SIGNAL: 9 (Killed)
===================================================================================

===================================================================================
=   BAD TERMINATION OF ONE OF YOUR APPLICATION PROCESSES
=   RANK 4 PID 8034 RUNNING AT b030
=   KILLED BY SIGNAL: 9 (Killed)
===================================================================================

===================================================================================
=   BAD TERMINATION OF ONE OF YOUR APPLICATION PROCESSES
=   RANK 5 PID 8035 RUNNING AT b030
=   KILLED BY SIGNAL: 9 (Killed)
===================================================================================

===================================================================================
=   BAD TERMINATION OF ONE OF YOUR APPLICATION PROCESSES
=   RANK 6 PID 8036 RUNNING AT b030
=   KILLED BY SIGNAL: 9 (Killed)
===================================================================================

===================================================================================
=   BAD TERMINATION OF ONE OF YOUR APPLICATION PROCESSES
=   RANK 7 PID 8037 RUNNING AT b030
=   KILLED BY SIGNAL: 9 (Killed)
===================================================================================

===================================================================================
=   BAD TERMINATION OF ONE OF YOUR APPLICATION PROCESSES
=   RANK 8 PID 8038 RUNNING AT b030
=   KILLED BY SIGNAL: 9 (Killed)
===================================================================================

===================================================================================
=   BAD TERMINATION OF ONE OF YOUR APPLICATION PROCESSES
=   RANK 9 PID 8039 RUNNING AT b030
=   KILLED BY SIGNAL: 9 (Killed)
===================================================================================

===================================================================================
=   BAD TERMINATION OF ONE OF YOUR APPLICATION PROCESSES
=   RANK 10 PID 8040 RUNNING AT b030
=   KILLED BY SIGNAL: 9 (Killed)
===================================================================================

===================================================================================
=   BAD TERMINATION OF ONE OF YOUR APPLICATION PROCESSES
=   RANK 11 PID 8041 RUNNING AT b030
=   KILLED BY SIGNAL: 9 (Killed)
===================================================================================

===================================================================================
=   BAD TERMINATION OF ONE OF YOUR APPLICATION PROCESSES
=   RANK 12 PID 8042 RUNNING AT b030
=   KILLED BY SIGNAL: 9 (Killed)
===================================================================================

===================================================================================
=   BAD TERMINATION OF ONE OF YOUR APPLICATION PROCESSES
=   RANK 13 PID 8043 RUNNING AT b030
=   KILLED BY SIGNAL: 9 (Killed)
===================================================================================

===================================================================================
=   BAD TERMINATION OF ONE OF YOUR APPLICATION PROCESSES
=   RANK 14 PID 8044 RUNNING AT b030
=   KILLED BY SIGNAL: 9 (Killed)
===================================================================================

===================================================================================
=   BAD TERMINATION OF ONE OF YOUR APPLICATION PROCESSES
=   RANK 15 PID 8045 RUNNING AT b030
=   KILLED BY SIGNAL: 9 (Killed)
===================================================================================

===================================================================================
=   BAD TERMINATION OF ONE OF YOUR APPLICATION PROCESSES
=   RANK 16 PID 8046 RUNNING AT b030
=   KILLED BY SIGNAL: 9 (Killed)
===================================================================================

===================================================================================
=   BAD TERMINATION OF ONE OF YOUR APPLICATION PROCESSES
=   RANK 17 PID 8047 RUNNING AT b030
=   KILLED BY SIGNAL: 9 (Killed)
===================================================================================

===================================================================================
=   BAD TERMINATION OF ONE OF YOUR APPLICATION PROCESSES
=   RANK 18 PID 8048 RUNNING AT b030
=   KILLED BY SIGNAL: 9 (Killed)
===================================================================================

===================================================================================
=   BAD TERMINATION OF ONE OF YOUR APPLICATION PROCESSES
=   RANK 19 PID 8049 RUNNING AT b030
=   KILLED BY SIGNAL: 9 (Killed)
===================================================================================

===================================================================================
=   BAD TERMINATION OF ONE OF YOUR APPLICATION PROCESSES
=   RANK 20 PID 8050 RUNNING AT b030
=   KILLED BY SIGNAL: 9 (Killed)
===================================================================================

===================================================================================
=   BAD TERMINATION OF ONE OF YOUR APPLICATION PROCESSES
=   RANK 21 PID 8051 RUNNING AT b030
=   KILLED BY SIGNAL: 9 (Killed)
===================================================================================

===================================================================================
=   BAD TERMINATION OF ONE OF YOUR APPLICATION PROCESSES
=   RANK 22 PID 8052 RUNNING AT b030
=   KILLED BY SIGNAL: 9 (Killed)
===================================================================================

===================================================================================
=   BAD TERMINATION OF ONE OF YOUR APPLICATION PROCESSES
=   RANK 23 PID 8053 RUNNING AT b030
=   KILLED BY SIGNAL: 9 (Killed)
===================================================================================
