 running on   24 total cores
 distrk:  each k-point on   24 cores,    1 groups
 distr:  one band on    4 cores,    6 groups
 using from now: INCAR     
 vasp.5.4.4.18Apr17-6-g9f103f2a35 (build May 21 2019 18:55:53) complex          
  
 POSCAR found type information on POSCAR  O  C  H  Co Li
 POSCAR found :  5 types and     154 ions
 LDA part: xc-table for Pade appr. of Perdew
 POSCAR found type information on POSCAR  O  C  H  Co Li
 POSCAR found :  5 types and     154 ions
 POSCAR, INCAR and KPOINTS ok, starting setup
 FFT: planning ...
 WAVECAR not read
 WARNING: random wavefunctions but no delay for mixing, default for NELMDL
 entering main loop
       N       E                     dE             d eps       ncg     rms          rms(c)
DAV:   1     0.814146498383E+04    0.81415E+04   -0.32515E+05  1944   0.137E+03
DAV:   2     0.732686445735E+03   -0.74088E+04   -0.66870E+04  2232   0.424E+02
DAV:   3    -0.115757698501E+04   -0.18903E+04   -0.17906E+04  3264   0.212E+02
DAV:   4    -0.130392118164E+04   -0.14634E+03   -0.13625E+03  3048   0.668E+01
DAV:   5    -0.131149103598E+04   -0.75699E+01   -0.70299E+01  3228   0.146E+01    0.152E+02
RMM:   6    -0.176747081600E+04   -0.45598E+03   -0.31668E+03  2502   0.134E+02    0.492E+02
RMM:   7    -0.154470327387E+04    0.22277E+03   -0.23365E+02  1959   0.460E+01    0.298E+02
RMM:   8    -0.113429758088E+04    0.41041E+03   -0.49395E+02  2132   0.449E+01    0.813E+01
RMM:   9    -0.132070884089E+04   -0.18641E+03   -0.12750E+02  2102   0.239E+01    0.170E+02
RMM:  10    -0.126685647626E+04    0.53852E+02   -0.82374E+01  2060   0.223E+01    0.143E+02
RMM:  11    -0.115345620335E+04    0.11340E+03   -0.86851E+01  2060   0.207E+01    0.897E+01
RMM:  12    -0.117414442083E+04   -0.20688E+02   -0.49927E+01  2030   0.159E+01    0.122E+02
RMM:  13    -0.115347186431E+04    0.20673E+02   -0.45111E+01  2047   0.148E+01    0.100E+02
RMM:  14    -0.112265236563E+04    0.30819E+02   -0.29159E+01  2031   0.120E+01    0.668E+01
RMM:  15    -0.112712091065E+04   -0.44685E+01   -0.19909E+01  2028   0.987E+00    0.801E+01
RMM:  16    -0.112120490610E+04    0.59160E+01   -0.16463E+01  2021   0.898E+00    0.720E+01
RMM:  17    -0.110923184203E+04    0.11973E+02   -0.85009E+00  2080   0.646E+00    0.458E+01
RMM:  18    -0.110870856327E+04    0.52328E+00   -0.37124E+00  2097   0.406E+00    0.382E+01
RMM:  19    -0.111124141820E+04   -0.25329E+01   -0.22872E+00  2046   0.344E+00    0.453E+01
RMM:  20    -0.110909319512E+04    0.21482E+01   -0.13181E+00  2112   0.255E+00    0.262E+01
RMM:  21    -0.110974182856E+04   -0.64863E+00   -0.67149E-01  2053   0.174E+00    0.212E+01
RMM:  22    -0.111051494586E+04   -0.77312E+00   -0.42048E-01  2087   0.136E+00    0.223E+01
RMM:  23    -0.111114215642E+04   -0.62721E+00   -0.18920E-01  2164   0.880E-01    0.208E+01
RMM:  24    -0.111279199378E+04   -0.16498E+01   -0.40686E-01  2036   0.132E+00    0.253E+01
RMM:  25    -0.111353402827E+04   -0.74203E+00   -0.34083E-01  2068   0.125E+00    0.225E+01
RMM:  26    -0.111470932081E+04   -0.11753E+01   -0.66684E-01  2049   0.169E+00    0.234E+01
RMM:  27    -0.111561727636E+04   -0.90796E+00   -0.33370E-01  2034   0.121E+00    0.210E+01
RMM:  28    -0.111589724572E+04   -0.27997E+00   -0.74960E-02  2283   0.498E-01    0.208E+01
RMM:  29    -0.111635335862E+04   -0.45611E+00   -0.10716E-01  2165   0.631E-01    0.214E+01
RMM:  30    -0.111822549493E+04   -0.18721E+01   -0.66101E-01  2009   0.152E+00    0.205E+01
RMM:  31    -0.111899964657E+04   -0.77415E+00   -0.46378E-01  2147   0.132E+00    0.168E+01
RMM:  32    -0.112103451789E+04   -0.20349E+01   -0.66852E-01  2032   0.149E+00    0.177E+01
RMM:  33    -0.112149953174E+04   -0.46501E+00   -0.27397E-01  2119   0.104E+00    0.174E+01
RMM:  34    -0.112271108359E+04   -0.12116E+01   -0.56901E-01  1984   0.146E+00    0.179E+01
RMM:  35    -0.112280156025E+04   -0.90477E-01   -0.17507E-01  2137   0.811E-01    0.158E+01
RMM:  36    -0.112293349487E+04   -0.13193E+00   -0.24570E-01  2046   0.937E-01    0.155E+01
RMM:  37    -0.112420362255E+04   -0.12701E+01   -0.65317E-01  1964   0.154E+00    0.141E+01
RMM:  38    -0.112501663769E+04   -0.81302E+00   -0.67045E-01  2117   0.167E+00    0.154E+01
RMM:  39    -0.112517993945E+04   -0.16330E+00   -0.27212E-01  2104   0.108E+00    0.115E+01
RMM:  40    -0.112556059757E+04   -0.38066E+00   -0.87746E-02  2278   0.544E-01    0.109E+01
RMM:  41    -0.112587158297E+04   -0.31099E+00   -0.10772E-01  2021   0.596E-01    0.941E+00
RMM:  42    -0.112618779723E+04   -0.31621E+00   -0.53698E-02  2320   0.382E-01    0.906E+00
RMM:  43    -0.112675913951E+04   -0.57134E+00   -0.88072E-02  1991   0.505E-01    0.807E+00
RMM:  44    -0.112759985657E+04   -0.84072E+00   -0.13647E-01  2083   0.585E-01    0.924E+00
RMM:  45    -0.112801342061E+04   -0.41356E+00   -0.80398E-02  2235   0.454E-01    0.854E+00
RMM:  46    -0.112840898362E+04   -0.39556E+00   -0.79573E-02  2092   0.406E-01    0.599E+00
RMM:  47    -0.112874285458E+04   -0.33387E+00   -0.46650E-02  2161   0.374E-01    0.542E+00
RMM:  48    -0.112919838476E+04   -0.45553E+00   -0.56022E-02  2027   0.353E-01    0.482E+00
RMM:  49    -0.112978078502E+04   -0.58240E+00   -0.83682E-02  2083   0.381E-01    0.425E+00
RMM:  50    -0.113019176697E+04   -0.41098E+00   -0.72674E-02  2323   0.338E-01    0.285E+00
RMM:  51    -0.113071549516E+04   -0.52373E+00   -0.14728E-01  2040   0.500E-01    0.313E+00
RMM:  52    -0.113089655946E+04   -0.18106E+00   -0.34370E-02  2231   0.298E-01    0.380E+00
RMM:  53    -0.113098262028E+04   -0.86061E-01   -0.19454E-02  2284   0.200E-01    0.287E+00
RMM:  54    -0.113115522456E+04   -0.17260E+00   -0.24579E-02  2142   0.234E-01    0.263E+00
RMM:  55    -0.113124934022E+04   -0.94116E-01   -0.15901E-02  2245   0.222E-01    0.173E+00
RMM:  56    -0.113130129063E+04   -0.51950E-01   -0.11744E-02  2136   0.195E-01    0.266E+00
RMM:  57    -0.113132821909E+04   -0.26928E-01   -0.67948E-03  2150   0.158E-01    0.130E+00
RMM:  58    -0.113136534705E+04   -0.37128E-01   -0.42606E-03  2148   0.122E-01    0.111E+00
RMM:  59    -0.113142885878E+04   -0.63512E-01   -0.46935E-03  2268   0.100E-01    0.604E-01
RMM:  60    -0.113147148339E+04   -0.42625E-01   -0.28740E-03  2340   0.763E-02    0.680E-01
RMM:  61    -0.113148875125E+04   -0.17268E-01   -0.14750E-03  2271   0.634E-02    0.711E-01
RMM:  62    -0.113149674646E+04   -0.79952E-02   -0.58479E-04  2385   0.382E-02    0.471E-01
RMM:  63    -0.113151031364E+04   -0.13567E-01   -0.63418E-04  2201   0.375E-02    0.414E-01
RMM:  64    -0.113152592696E+04   -0.15613E-01   -0.80879E-04  2377   0.365E-02    0.311E-01
RMM:  65    -0.113153323231E+04   -0.73053E-02   -0.38806E-04  2395   0.252E-02    0.299E-01
RMM:  66    -0.113154585893E+04   -0.12627E-01   -0.12270E-03  2107   0.462E-02    0.361E-01
RMM:  67    -0.113154699807E+04   -0.11391E-02   -0.26972E-04  2122   0.308E-02    0.156E-01
RMM:  68    -0.113154861017E+04   -0.16121E-02   -0.15073E-04  2141   0.207E-02    0.241E-01
RMM:  69    -0.113155073639E+04   -0.21262E-02   -0.14369E-04  2235   0.180E-02    0.115E-01
RMM:  70    -0.113155225528E+04   -0.15189E-02   -0.82136E-05  2142   0.115E-02    0.117E-01
RMM:  71    -0.113155440217E+04   -0.21469E-02   -0.14580E-04  2143   0.166E-02    0.824E-02
RMM:  72    -0.113155457333E+04   -0.17116E-03   -0.27550E-05  1747   0.904E-03    0.849E-02
RMM:  73    -0.113155499391E+04   -0.42058E-03   -0.21459E-05  1818   0.744E-03    0.622E-02
RMM:  74    -0.113155551773E+04   -0.52382E-03   -0.16732E-05  1822   0.571E-03    0.328E-02
RMM:  75    -0.113155599421E+04   -0.47648E-03   -0.15803E-05  1807   0.502E-03    0.177E-02
RMM:  76    -0.113155632607E+04   -0.33186E-03   -0.12636E-05  1806   0.447E-03    0.184E-02
RMM:  77    -0.113155646212E+04   -0.13605E-03   -0.44230E-06  1492   0.309E-03    0.160E-02
RMM:  78    -0.113155661138E+04   -0.14926E-03   -0.46210E-06  1473   0.270E-03    0.117E-02
RMM:  79    -0.113155676635E+04   -0.15497E-03   -0.55732E-06  1544   0.262E-03    0.736E-03
RMM:  80    -0.113155684888E+04   -0.82526E-04   -0.34596E-06  1395   0.239E-03    0.946E-03
RMM:  81    -0.113155691899E+04   -0.70116E-04   -0.34251E-06  1365   0.219E-03    0.710E-03
RMM:  82    -0.113155695911E+04   -0.40121E-04   -0.22338E-06  1260   0.195E-03    0.425E-03
RMM:  83    -0.113155698908E+04   -0.29963E-04   -0.19951E-06  1222   0.175E-03    0.577E-03
RMM:  84    -0.113155700928E+04   -0.20204E-04   -0.16589E-06  1180   0.165E-03    0.407E-03
RMM:  85    -0.113155702119E+04   -0.11912E-04   -0.12697E-06  1107   0.142E-03    0.260E-03
RMM:  86    -0.113155702738E+04   -0.61909E-05   -0.83726E-07  1034   0.127E-03    0.209E-03
RMM:  87    -0.113155703103E+04   -0.36463E-05   -0.55312E-07   979   0.102E-03    0.121E-03
RMM:  88    -0.113155703482E+04   -0.37864E-05   -0.45856E-07   980   0.902E-04    0.804E-04
RMM:  89    -0.113155703718E+04   -0.23643E-05   -0.32945E-07   931   0.809E-04    0.120E-03
RMM:  90    -0.113155703877E+04   -0.15916E-05   -0.24684E-07   891   0.675E-04    0.200E-03
RMM:  91    -0.113155703974E+04   -0.96690E-06   -0.17202E-07   848   0.610E-04
   1 F= -.11394252E+04 E0= -.11394072E+04  d E =-.113943E+04  mag=    38.4367
 curvature:   0.00 expect dE= 0.000E+00 dE for cont linesearch  0.000E+00
 trial: gam= 0.00000 g(F)=  0.521E-01 g(S)=  0.605E-02 ort = 0.000E+00 (trialstep = 0.100E+01)
 search vector abs. value=  0.582E-01
 bond charge predicted
       N       E                     dE             d eps       ncg     rms          rms(c)
DAV:   1    -0.113150704636E+04    0.49992E-01   -0.20812E+01  2040   0.667E+00    0.253E+00
RMM:   2    -0.113157649847E+04   -0.69452E-01   -0.39479E-01  2016   0.135E+00    0.493E+00
RMM:   3    -0.113165075359E+04   -0.74255E-01   -0.18781E-01  2322   0.729E-01    0.494E+00
RMM:   4    -0.113163164172E+04    0.19112E-01   -0.78881E-02  2238   0.593E-01    0.554E+00
RMM:   5    -0.113157227805E+04    0.59364E-01   -0.43078E-02  2175   0.439E-01    0.323E+00
RMM:   6    -0.113157274402E+04   -0.46597E-03   -0.22474E-02  2167   0.310E-01    0.258E+00
RMM:   7    -0.113156996933E+04    0.27747E-02   -0.98371E-03  2169   0.219E-01    0.128E+00
RMM:   8    -0.113157236426E+04   -0.23949E-02   -0.62430E-03  2182   0.171E-01    0.108E+00
RMM:   9    -0.113157369953E+04   -0.13353E-02   -0.45124E-03  2219   0.146E-01    0.875E-01
RMM:  10    -0.113157387109E+04   -0.17157E-03   -0.29744E-03  2213   0.121E-01    0.112E+00
RMM:  11    -0.113157310838E+04    0.76271E-03   -0.20762E-03  2154   0.979E-02    0.619E-01
RMM:  12    -0.113157342248E+04   -0.31410E-03   -0.14218E-03  2135   0.860E-02    0.474E-01
RMM:  13    -0.113157398144E+04   -0.55896E-03   -0.79257E-04  2142   0.656E-02    0.661E-01
RMM:  14    -0.113157351803E+04    0.46341E-03   -0.35237E-04  2115   0.426E-02    0.268E-01
RMM:  15    -0.113157401756E+04   -0.49953E-03   -0.21847E-04  2043   0.327E-02    0.152E-01
RMM:  16    -0.113157433956E+04   -0.32199E-03   -0.12355E-04  1886   0.262E-02    0.305E-01
RMM:  17    -0.113157431217E+04    0.27386E-04   -0.61995E-05  1795   0.189E-02    0.214E-01
RMM:  18    -0.113157440887E+04   -0.96696E-04   -0.30933E-05  1719   0.113E-02    0.651E-02
RMM:  19    -0.113157462420E+04   -0.21534E-03   -0.32709E-05  1692   0.134E-02    0.153E-01
RMM:  20    -0.113157478524E+04   -0.16104E-03   -0.23869E-05  1683   0.111E-02    0.712E-02
RMM:  21    -0.113157492011E+04   -0.13487E-03   -0.11083E-05  1494   0.717E-03    0.475E-02
RMM:  22    -0.113157507085E+04   -0.15074E-03   -0.87981E-06  1499   0.677E-03    0.420E-02
RMM:  23    -0.113157522912E+04   -0.15827E-03   -0.47431E-06  1468   0.443E-03    0.491E-02
RMM:  24    -0.113157532636E+04   -0.97244E-04   -0.32999E-06  1366   0.378E-03    0.212E-02
RMM:  25    -0.113157554206E+04   -0.21569E-03   -0.55743E-06  1545   0.377E-03    0.338E-02
RMM:  26    -0.113157566551E+04   -0.12346E-03   -0.39890E-06  1430   0.366E-03    0.351E-02
RMM:  27    -0.113157576521E+04   -0.99692E-04   -0.28041E-06  1341   0.278E-03    0.255E-02
RMM:  28    -0.113157588238E+04   -0.11718E-03   -0.29918E-06  1370   0.225E-03    0.779E-03
RMM:  29    -0.113157596855E+04   -0.86162E-04   -0.25134E-06  1281   0.239E-03    0.151E-02
RMM:  30    -0.113157600794E+04   -0.39390E-04   -0.14781E-06  1161   0.207E-03    0.153E-02
RMM:  31    -0.113157607065E+04   -0.62709E-04   -0.17976E-06  1198   0.173E-03    0.331E-03
RMM:  32    -0.113157612449E+04   -0.53848E-04   -0.17463E-06  1178   0.164E-03    0.309E-03
RMM:  33    -0.113157616425E+04   -0.39752E-04   -0.15861E-06  1150   0.145E-03    0.202E-03
RMM:  34    -0.113157621284E+04   -0.48593E-04   -0.23671E-06  1288   0.159E-03    0.187E-03
RMM:  35    -0.113157623792E+04   -0.25083E-04   -0.17409E-06  1174   0.150E-03    0.161E-03
RMM:  36    -0.113157625491E+04   -0.16992E-04   -0.14438E-06  1150   0.139E-03    0.112E-03
RMM:  37    -0.113157626639E+04   -0.11474E-04   -0.12408E-06  1108   0.131E-03    0.136E-03
RMM:  38    -0.113157627141E+04   -0.50268E-05   -0.90871E-07  1051   0.119E-03    0.131E-03
RMM:  39    -0.113157627310E+04   -0.16849E-05   -0.59678E-07   970   0.104E-03    0.380E-04
RMM:  40    -0.113157627386E+04   -0.76331E-06   -0.40288E-07   915   0.843E-04
   2 F= -.11394552E+04 E0= -.11394374E+04  d E =-.299203E-01  mag=    38.4367
 trial-energy change:   -0.029920  1 .order   -0.029998   -0.058165   -0.001832
 step:   1.0325(harm=  1.0325)  dis= 0.03185  next Energy= -1139.455262 (dE=-0.300E-01)
 bond charge predicted
       N       E                     dE             d eps       ncg     rms          rms(c)
DAV:   1    -0.113157588147E+04    0.39163E-03   -0.22032E-02  2112   0.217E-01    0.818E-02
RMM:   2    -0.113157589678E+04   -0.15314E-04   -0.33570E-04  2017   0.423E-02    0.174E-01
RMM:   3    -0.113157610182E+04   -0.20504E-03   -0.17374E-04  2169   0.244E-02    0.490E-01
RMM:   4    -0.113157575477E+04    0.34705E-03   -0.18852E-04  1944   0.297E-02    0.181E-01
RMM:   5    -0.113157586571E+04   -0.11094E-03   -0.64986E-05  1747   0.183E-02    0.899E-02
RMM:   6    -0.113157592556E+04   -0.59843E-04   -0.29376E-05  1729   0.127E-02    0.574E-02
RMM:   7    -0.113157593627E+04   -0.10709E-04   -0.12838E-05  1505   0.882E-03    0.503E-02
RMM:   8    -0.113157593255E+04    0.37140E-05   -0.68238E-06  1420   0.664E-03    0.435E-02
RMM:   9    -0.113157593181E+04    0.74154E-06   -0.39186E-06  1352   0.503E-03
   3 F= -.11394552E+04 E0= -.11394374E+04  d E =-.299297E-01  mag=    38.4367
 curvature:  -0.52 expect dE=-0.511E-01 dE for cont linesearch -0.244E-07
 trial: gam= 1.69925 g(F)=  0.978E-01 g(S)=  0.109E-02 ort = 0.524E-04 (trialstep = 0.219E+00)
 search vector abs. value=  0.267E+00
 bond charge predicted
       N       E                     dE             d eps       ncg     rms          rms(c)
DAV:   1    -0.113157132774E+04    0.46048E-02   -0.46054E+00  1968   0.312E+00    0.114E+00
RMM:   2    -0.113158887369E+04   -0.17546E-01   -0.71559E-02  2136   0.579E-01    0.314E+00
RMM:   3    -0.113159809985E+04   -0.92262E-02   -0.32725E-02  2287   0.322E-01    0.294E+00
RMM:   4    -0.113158599006E+04    0.12110E-01   -0.18050E-02  2167   0.300E-01    0.154E+00
RMM:   5    -0.113158517222E+04    0.81784E-03   -0.49543E-03  2207   0.153E-01    0.156E+00
RMM:   6    -0.113158485946E+04    0.31277E-03   -0.26132E-03  2200   0.105E-01    0.112E+00
RMM:   7    -0.113158455450E+04    0.30495E-03   -0.22054E-03  2145   0.107E-01    0.440E-01
RMM:   8    -0.113158589186E+04   -0.13374E-02   -0.14933E-03  2154   0.895E-02    0.681E-01
RMM:   9    -0.113158537577E+04    0.51609E-03   -0.95149E-04  2167   0.708E-02    0.534E-01
RMM:  10    -0.113158520069E+04    0.17508E-03   -0.47107E-04  2206   0.478E-02    0.335E-01
RMM:  11    -0.113158540265E+04   -0.20196E-03   -0.28020E-04  2113   0.367E-02    0.227E-01
RMM:  12    -0.113158554835E+04   -0.14571E-03   -0.19734E-04  2049   0.334E-02    0.202E-01
RMM:  13    -0.113158557100E+04   -0.22642E-04   -0.10036E-04  1913   0.233E-02    0.154E-01
RMM:  14    -0.113158562545E+04   -0.54454E-04   -0.57486E-05  1809   0.167E-02    0.834E-02
RMM:  15    -0.113158569709E+04   -0.71642E-04   -0.31063E-05  1661   0.133E-02    0.925E-02
RMM:  16    -0.113158572586E+04   -0.28762E-04   -0.13925E-05  1520   0.917E-03    0.875E-02
RMM:  17    -0.113158574330E+04   -0.17448E-04   -0.67427E-06  1426   0.633E-03    0.342E-02
RMM:  18    -0.113158580108E+04   -0.57780E-04   -0.52027E-06  1421   0.520E-03    0.451E-02
RMM:  19    -0.113158584429E+04   -0.43204E-04   -0.50101E-06  1407   0.540E-03    0.519E-02
RMM:  20    -0.113158587777E+04   -0.33478E-04   -0.25581E-06  1335   0.387E-03    0.243E-02
RMM:  21    -0.113158592087E+04   -0.43108E-04   -0.15039E-06  1231   0.262E-03    0.182E-02
RMM:  22    -0.113158595473E+04   -0.33853E-04   -0.14882E-06  1218   0.280E-03    0.283E-02
RMM:  23    -0.113158599036E+04   -0.35628E-04   -0.11822E-06  1172   0.230E-03    0.215E-02
RMM:  24    -0.113158602757E+04   -0.37213E-04   -0.99842E-07  1129   0.199E-03    0.713E-03
RMM:  25    -0.113158607794E+04   -0.50374E-04   -0.13104E-06  1172   0.170E-03    0.140E-02
RMM:  26    -0.113158609865E+04   -0.20704E-04   -0.81718E-07  1097   0.178E-03    0.168E-02
RMM:  27    -0.113158612203E+04   -0.23385E-04   -0.72644E-07  1073   0.137E-03    0.763E-03
RMM:  28    -0.113158614507E+04   -0.23035E-04   -0.65885E-07  1026   0.123E-03    0.365E-03
RMM:  29    -0.113158615873E+04   -0.13668E-04   -0.54991E-07  1020   0.113E-03    0.701E-03
RMM:  30    -0.113158617761E+04   -0.18880E-04   -0.61967E-07  1050   0.107E-03    0.441E-03
RMM:  31    -0.113158619487E+04   -0.17258E-04   -0.63058E-07  1008   0.101E-03    0.898E-04
RMM:  32    -0.113158620767E+04   -0.12799E-04   -0.62204E-07  1004   0.959E-04    0.164E-03
RMM:  33    -0.113158621791E+04   -0.10240E-04   -0.59353E-07   997   0.925E-04    0.691E-04
RMM:  34    -0.113158622790E+04   -0.99889E-05   -0.63788E-07  1030   0.938E-04    0.113E-03
RMM:  35    -0.113158623322E+04   -0.53232E-05   -0.52985E-07   973   0.917E-04    0.889E-04
RMM:  36    -0.113158623677E+04   -0.35438E-05   -0.45301E-07   951   0.811E-04    0.348E-04
RMM:  37    -0.113158623955E+04   -0.27839E-05   -0.41107E-07   968   0.808E-04    0.309E-04
RMM:  38    -0.113158624046E+04   -0.90882E-06   -0.30871E-07   902   0.721E-04
   4 F= -.11394697E+04 E0= -.11394520E+04  d E =-.145545E-01  mag=    38.4391
 trial-energy change:   -0.014555  1 .order   -0.014574   -0.021701   -0.007447
 step:   0.3338(harm=  0.3338)  dis= 0.02148  next Energy= -1139.471683 (dE=-0.165E-01)
 bond charge predicted
       N       E                     dE             d eps       ncg     rms          rms(c)
DAV:   1    -0.113158196679E+04    0.42728E-02   -0.12576E+00  2112   0.163E+00    0.595E-01
RMM:   2    -0.113158595127E+04   -0.39845E-02   -0.18245E-02  2128   0.299E-01    0.149E+00
RMM:   3    -0.113159172116E+04   -0.57699E-02   -0.88067E-03  2280   0.171E-01    0.238E+00
RMM:   4    -0.113158392467E+04    0.77965E-02   -0.66241E-03  2146   0.180E-01    0.856E-01
RMM:   5    -0.113158504758E+04   -0.11229E-02   -0.17566E-03  2155   0.948E-02    0.778E-01
RMM:   6    -0.113158530305E+04   -0.25548E-03   -0.84039E-04  2150   0.632E-02    0.436E-01
RMM:   7    -0.113158563003E+04   -0.32698E-03   -0.69187E-04  2134   0.611E-02    0.295E-01
RMM:   8    -0.113158565110E+04   -0.21067E-04   -0.35517E-04  2192   0.446E-02    0.301E-01
RMM:   9    -0.113158556456E+04    0.86542E-04   -0.19072E-04  2136   0.308E-02    0.191E-01
RMM:  10    -0.113158562285E+04   -0.58293E-04   -0.11185E-04  1998   0.239E-02    0.110E-01
RMM:  11    -0.113158568595E+04   -0.63103E-04   -0.77688E-05  1887   0.202E-02    0.138E-01
RMM:  12    -0.113158567044E+04    0.15513E-04   -0.39010E-05  1743   0.150E-02    0.768E-02
RMM:  13    -0.113158569764E+04   -0.27200E-04   -0.19008E-05  1532   0.991E-03    0.476E-02
RMM:  14    -0.113158572750E+04   -0.29858E-04   -0.12922E-05  1477   0.867E-03    0.688E-02
RMM:  15    -0.113158573286E+04   -0.53591E-05   -0.65717E-06  1425   0.660E-03    0.527E-02
RMM:  16    -0.113158574318E+04   -0.10324E-04   -0.27813E-06  1328   0.408E-03    0.219E-02
RMM:  17    -0.113158575952E+04   -0.16342E-04   -0.24619E-06  1324   0.380E-03    0.287E-02
RMM:  18    -0.113158577720E+04   -0.17675E-04   -0.16685E-06  1244   0.319E-03    0.344E-02
RMM:  19    -0.113158578829E+04   -0.11090E-04   -0.10504E-06  1195   0.255E-03    0.174E-02
RMM:  20    -0.113158580354E+04   -0.15258E-04   -0.72960E-07  1134   0.205E-03    0.113E-02
RMM:  21    -0.113158581949E+04   -0.15947E-04   -0.57622E-07  1092   0.166E-03    0.194E-02
RMM:  22    -0.113158582779E+04   -0.82948E-05   -0.39351E-07  1076   0.144E-03    0.155E-02
RMM:  23    -0.113158584071E+04   -0.12921E-04   -0.33756E-07  1037   0.114E-03    0.647E-03
RMM:  24    -0.113158585298E+04   -0.12271E-04   -0.31928E-07   994   0.110E-03    0.474E-03
RMM:  25    -0.113158586767E+04   -0.14690E-04   -0.36585E-07  1057   0.959E-04    0.728E-03
RMM:  26    -0.113158587427E+04   -0.65969E-05   -0.26401E-07   980   0.948E-04    0.679E-03
RMM:  27    -0.113158588331E+04   -0.90461E-05   -0.27398E-07   945   0.738E-04    0.245E-03
RMM:  28    -0.113158589207E+04   -0.87604E-05   -0.25980E-07   921   0.737E-04    0.206E-03
RMM:  29    -0.113158589927E+04   -0.71953E-05   -0.28139E-07   955   0.672E-04    0.188E-03
RMM:  30    -0.113158590296E+04   -0.36980E-05   -0.21203E-07   891   0.673E-04    0.131E-03
RMM:  31    -0.113158590691E+04   -0.39429E-05   -0.20118E-07   832   0.566E-04    0.499E-04
RMM:  32    -0.113158591110E+04   -0.41940E-05   -0.20125E-07   906   0.610E-04    0.469E-04
RMM:  33    -0.113158591403E+04   -0.29280E-05   -0.19637E-07   905   0.556E-04    0.325E-04
RMM:  34    -0.113158591664E+04   -0.26076E-05   -0.18464E-07   895   0.576E-04    0.623E-04
RMM:  35    -0.113158591801E+04   -0.13734E-05   -0.15746E-07   846   0.531E-04    0.300E-04
RMM:  36    -0.113158591902E+04   -0.10113E-05   -0.13858E-07   818   0.506E-04    0.276E-04
RMM:  37    -0.113158591957E+04   -0.55135E-06   -0.11625E-07   802   0.479E-04
   5 F= -.11394716E+04 E0= -.11394539E+04  d E =-.164649E-01  mag=    38.4404
 curvature:  -0.45 expect dE=-0.153E-01 dE for cont linesearch -0.599E-07
 trial: gam= 0.33757 g(F)=  0.329E-01 g(S)=  0.983E-03 ort =-0.188E-03 (trialstep = 0.242E+00)
 search vector abs. value=  0.642E-01
 bond charge predicted
       N       E                     dE             d eps       ncg     rms          rms(c)
DAV:   1    -0.113158638532E+04   -0.46630E-03   -0.11571E+00  2064   0.192E+00    0.498E-01
RMM:   2    -0.113159316165E+04   -0.67763E-02   -0.22744E-02  2215   0.336E-01    0.241E+00
RMM:   3    -0.113158632232E+04    0.68393E-02   -0.72313E-03  2330   0.167E-01    0.110E+00
RMM:   4    -0.113159360790E+04   -0.72856E-02   -0.58526E-03  2192   0.173E-01    0.164E+00
RMM:   5    -0.113158888311E+04    0.47248E-02   -0.23373E-03  2194   0.109E-01    0.658E-01
RMM:   6    -0.113158955086E+04   -0.66775E-03   -0.11510E-03  2115   0.798E-02    0.459E-01
RMM:   7    -0.113158963592E+04   -0.85058E-04   -0.49892E-04  2194   0.484E-02    0.263E-01
RMM:   8    -0.113158983368E+04   -0.19776E-03   -0.35124E-04  2178   0.431E-02    0.358E-01
RMM:   9    -0.113158971994E+04    0.11374E-03   -0.24883E-04  2125   0.368E-02    0.364E-01
RMM:  10    -0.113158959745E+04    0.12249E-03   -0.12488E-04  2028   0.252E-02    0.209E-01
RMM:  11    -0.113158968857E+04   -0.91125E-04   -0.77954E-05  1838   0.206E-02    0.885E-02
RMM:  12    -0.113158979476E+04   -0.10619E-03   -0.49352E-05  1785   0.167E-02    0.131E-01
RMM:  13    -0.113158978504E+04    0.97242E-05   -0.26093E-05  1626   0.124E-02    0.102E-01
RMM:  14    -0.113158979784E+04   -0.12806E-04   -0.11544E-05  1464   0.812E-03    0.506E-02
RMM:  15    -0.113158982763E+04   -0.29784E-04   -0.61829E-06  1405   0.619E-03    0.275E-02
RMM:  16    -0.113158984598E+04   -0.18359E-04   -0.40126E-06  1377   0.495E-03    0.304E-02
RMM:  17    -0.113158986008E+04   -0.14100E-04   -0.17386E-06  1266   0.338E-03    0.122E-02
RMM:  18    -0.113158987418E+04   -0.14099E-04   -0.13420E-06  1266   0.283E-03    0.194E-02
RMM:  19    -0.113158989257E+04   -0.18386E-04   -0.94190E-07  1171   0.237E-03    0.196E-02
RMM:  20    -0.113158990454E+04   -0.11975E-04   -0.64223E-07  1109   0.186E-03    0.130E-02
RMM:  21    -0.113158991517E+04   -0.10625E-04   -0.47309E-07  1043   0.158E-03    0.524E-03
RMM:  22    -0.113158992681E+04   -0.11637E-04   -0.39156E-07  1061   0.127E-03    0.630E-03
RMM:  23    -0.113158993936E+04   -0.12552E-04   -0.36875E-07  1084   0.123E-03    0.837E-03
RMM:  24    -0.113158995412E+04   -0.14762E-04   -0.40235E-07  1073   0.103E-03    0.505E-03
RMM:  25    -0.113158995971E+04   -0.55859E-05   -0.27550E-07   966   0.102E-03    0.249E-03
RMM:  26    -0.113158996836E+04   -0.86559E-05   -0.27395E-07   917   0.719E-04    0.233E-03
RMM:  27    -0.113158997261E+04   -0.42471E-05   -0.19687E-07   919   0.770E-04    0.263E-03
RMM:  28    -0.113158997693E+04   -0.43239E-05   -0.18148E-07   877   0.596E-04    0.104E-03
RMM:  29    -0.113158998247E+04   -0.55414E-05   -0.17854E-07   902   0.612E-04    0.852E-04
RMM:  30    -0.113158998696E+04   -0.44830E-05   -0.19656E-07   923   0.567E-04    0.669E-04
RMM:  31    -0.113158999030E+04   -0.33420E-05   -0.17688E-07   896   0.589E-04    0.374E-04
RMM:  32    -0.113158999252E+04   -0.22246E-05   -0.16395E-07   867   0.529E-04    0.502E-04
RMM:  33    -0.113158999455E+04   -0.20231E-05   -0.15611E-07   869   0.541E-04    0.231E-04
RMM:  34    -0.113158999584E+04   -0.12922E-05   -0.14375E-07   856   0.510E-04    0.347E-04
RMM:  35    -0.113158999646E+04   -0.62104E-06   -0.11142E-07   794   0.485E-04
   6 F= -.11394766E+04 E0= -.11394589E+04  d E =-.496168E-02  mag=    38.4410
 trial-energy change:   -0.004962  1 .order   -0.004961   -0.008199   -0.001724
 step:   0.3066(harm=  0.3066)  dis= 0.00627  next Energy= -1139.476819 (dE=-0.519E-02)
 bond charge predicted
       N       E                     dE             d eps       ncg     rms          rms(c)
DAV:   1    -0.113158973226E+04    0.26358E-03   -0.82093E-02  2112   0.511E-01    0.133E-01
RMM:   2    -0.113159013313E+04   -0.40088E-03   -0.15988E-03  2209   0.893E-02    0.622E-01
RMM:   3    -0.113158958889E+04    0.54424E-03   -0.51733E-04  2297   0.455E-02    0.317E-01
RMM:   4    -0.113159014756E+04   -0.55867E-03   -0.40920E-04  2129   0.463E-02    0.394E-01
RMM:   5    -0.113158985860E+04    0.28896E-03   -0.15070E-04  1949   0.278E-02    0.177E-01
RMM:   6    -0.113158992315E+04   -0.64550E-04   -0.78546E-05  1844   0.208E-02    0.114E-01
RMM:   7    -0.113158993868E+04   -0.15524E-04   -0.35462E-05  1800   0.132E-02    0.683E-02
RMM:   8    -0.113158995979E+04   -0.21119E-04   -0.25194E-05  1725   0.118E-02    0.972E-02
RMM:   9    -0.113158994477E+04    0.15028E-04   -0.17381E-05  1602   0.100E-02    0.934E-02
RMM:  10    -0.113158993794E+04    0.68301E-05   -0.85874E-06  1443   0.717E-03    0.507E-02
RMM:  11    -0.113158995079E+04   -0.12854E-04   -0.55316E-06  1391   0.591E-03    0.251E-02
RMM:  12    -0.113158996268E+04   -0.11892E-04   -0.35609E-06  1361   0.472E-03    0.409E-02
RMM:  13    -0.113158996005E+04    0.26323E-05   -0.18489E-06  1265   0.370E-03    0.305E-02
RMM:  14    -0.113158996252E+04   -0.24653E-05   -0.76490E-07  1149   0.235E-03    0.129E-02
RMM:  15    -0.113158996706E+04   -0.45469E-05   -0.51841E-07  1124   0.193E-03    0.813E-03
RMM:  16    -0.113158996944E+04   -0.23785E-05   -0.31708E-07  1090   0.145E-03    0.902E-03
RMM:  17    -0.113158997104E+04   -0.16020E-05   -0.16636E-07  1026   0.108E-03    0.307E-03
RMM:  18    -0.113158997289E+04   -0.18432E-05   -0.11607E-07   893   0.843E-04    0.615E-03
RMM:  19    -0.113158997482E+04   -0.19378E-05   -0.94277E-08   895   0.776E-04    0.642E-03
RMM:  20    -0.113158997630E+04   -0.14744E-05   -0.64322E-08   845   0.602E-04    0.406E-03
RMM:  21    -0.113158997749E+04   -0.11967E-05   -0.47098E-08   757   0.542E-04    0.147E-03
RMM:  22    -0.113158997890E+04   -0.14079E-05   -0.41404E-08   765   0.468E-04    0.203E-03
RMM:  23    -0.113158998045E+04   -0.15432E-05   -0.45503E-08   847   0.472E-04    0.297E-03
RMM:  24    -0.113158998170E+04   -0.12586E-05   -0.39519E-08   784   0.410E-04    0.231E-03
RMM:  25    -0.113158998230E+04   -0.60061E-06   -0.25472E-08   663   0.383E-04
   7 F= -.11394768E+04 E0= -.11394591E+04  d E =-.518329E-02  mag=    38.4412
 curvature:  -0.29 expect dE=-0.882E-02 dE for cont linesearch -0.741E-07
 trial: gam= 0.89408 g(F)=  0.298E-01 g(S)=  0.523E-03 ort =-0.128E-03 (trialstep = 0.201E+00)
 search vector abs. value=  0.814E-01
 bond charge predicted
       N       E                     dE             d eps       ncg     rms          rms(c)
DAV:   1    -0.113159187644E+04   -0.18947E-02   -0.91266E-01  1956   0.185E+00    0.409E-01
RMM:   2    -0.113159794306E+04   -0.60666E-02   -0.19256E-02  2259   0.304E-01    0.232E+00
RMM:   3    -0.113159064152E+04    0.73015E-02   -0.56150E-03  2342   0.151E-01    0.677E-01
RMM:   4    -0.113159776189E+04   -0.71204E-02   -0.42869E-03  2207   0.149E-01    0.149E+00
RMM:   5    -0.113159376174E+04    0.40002E-02   -0.18175E-03  2199   0.962E-02    0.568E-01
RMM:   6    -0.113159434151E+04   -0.57978E-03   -0.83680E-04  2129   0.689E-02    0.447E-01
RMM:   7    -0.113159436662E+04   -0.25112E-04   -0.31486E-04  2188   0.387E-02    0.268E-01
RMM:   8    -0.113159453208E+04   -0.16546E-03   -0.22236E-04  2144   0.341E-02    0.257E-01
RMM:   9    -0.113159457904E+04   -0.46958E-04   -0.18727E-04  2122   0.324E-02    0.331E-01
RMM:  10    -0.113159444631E+04    0.13273E-03   -0.10444E-04  2000   0.231E-02    0.211E-01
RMM:  11    -0.113159450121E+04   -0.54905E-04   -0.60066E-05  1814   0.179E-02    0.756E-02
RMM:  12    -0.113159459138E+04   -0.90169E-04   -0.37125E-05  1743   0.143E-02    0.976E-02
RMM:  13    -0.113159458841E+04    0.29686E-05   -0.18759E-05  1530   0.107E-02    0.837E-02
RMM:  14    -0.113159459021E+04   -0.17951E-05   -0.75026E-06  1433   0.669E-03    0.381E-02
RMM:  15    -0.113159460598E+04   -0.15777E-04   -0.42422E-06  1371   0.519E-03    0.232E-02
RMM:  16    -0.113159461651E+04   -0.10526E-04   -0.24705E-06  1324   0.392E-03    0.278E-02
RMM:  17    -0.113159462050E+04   -0.39904E-05   -0.11168E-06  1197   0.283E-03    0.136E-02
RMM:  18    -0.113159462745E+04   -0.69481E-05   -0.78034E-07  1153   0.217E-03    0.117E-02
RMM:  19    -0.113159463513E+04   -0.76802E-05   -0.56631E-07  1102   0.190E-03    0.109E-02
RMM:  20    -0.113159464093E+04   -0.57976E-05   -0.34343E-07  1046   0.138E-03    0.955E-03
RMM:  21    -0.113159464488E+04   -0.39554E-05   -0.25757E-07   993   0.121E-03    0.526E-03
RMM:  22    -0.113159465166E+04   -0.67762E-05   -0.20977E-07   997   0.924E-04    0.419E-03
RMM:  23    -0.113159465776E+04   -0.61065E-05   -0.20687E-07  1029   0.959E-04    0.680E-03
RMM:  24    -0.113159466519E+04   -0.74259E-05   -0.23106E-07  1060   0.861E-04    0.593E-03
RMM:  25    -0.113159466852E+04   -0.33282E-05   -0.16339E-07   903   0.828E-04    0.312E-03
RMM:  26    -0.113159467313E+04   -0.46130E-05   -0.15088E-07   823   0.567E-04    0.116E-03
RMM:  27    -0.113159467561E+04   -0.24830E-05   -0.11408E-07   849   0.618E-04    0.193E-03
RMM:  28    -0.113159467807E+04   -0.24538E-05   -0.10393E-07   821   0.500E-04    0.116E-03
RMM:  29    -0.113159468106E+04   -0.29959E-05   -0.10122E-07   842   0.500E-04    0.544E-04
RMM:  30    -0.113159468355E+04   -0.24884E-05   -0.10376E-07   819   0.453E-04    0.317E-04
RMM:  31    -0.113159468572E+04   -0.21650E-05   -0.99130E-08   809   0.466E-04    0.447E-04
RMM:  32    -0.113159468753E+04   -0.18108E-05   -0.10630E-07   840   0.447E-04    0.422E-04
RMM:  33    -0.113159468896E+04   -0.14284E-05   -0.96811E-08   820   0.460E-04    0.163E-04
RMM:  34    -0.113159469002E+04   -0.10656E-05   -0.95022E-08   767   0.431E-04    0.313E-04
RMM:  35    -0.113159469065E+04   -0.62346E-06   -0.81012E-08   775   0.437E-04
   8 F= -.11394816E+04 E0= -.11394640E+04  d E =-.483525E-02  mag=    38.4407
 trial-energy change:   -0.004835  1 .order   -0.004838   -0.006077   -0.003598
 step:   0.4931(harm=  0.4931)  dis= 0.00836  next Energy= -1139.484262 (dE=-0.745E-02)
 bond charge predicted
       N       E                     dE             d eps       ncg     rms          rms(c)
DAV:   1    -0.113159114518E+04    0.35448E-02   -0.19235E+00  2004   0.268E+00    0.595E-01
RMM:   2    -0.113160430167E+04   -0.13156E-01   -0.40850E-02  2262   0.443E-01    0.337E+00
RMM:   3    -0.113158984341E+04    0.14458E-01   -0.11807E-02  2337   0.219E-01    0.101E+00
RMM:   4    -0.113160447663E+04   -0.14633E-01   -0.93255E-03  2206   0.218E-01    0.230E+00
RMM:   5    -0.113159511231E+04    0.93643E-02   -0.41520E-03  2215   0.146E-01    0.793E-01
RMM:   6    -0.113159645918E+04   -0.13469E-02   -0.17696E-03  2139   0.101E-01    0.626E-01
RMM:   7    -0.113159655823E+04   -0.99057E-04   -0.66541E-04  2201   0.562E-02    0.404E-01
RMM:   8    -0.113159685616E+04   -0.29793E-03   -0.46761E-04  2178   0.493E-02    0.372E-01
RMM:   9    -0.113159694514E+04   -0.88977E-04   -0.38839E-04  2150   0.465E-02    0.473E-01
RMM:  10    -0.113159669308E+04    0.25206E-03   -0.22501E-04  2117   0.337E-02    0.300E-01
RMM:  11    -0.113159678589E+04   -0.92808E-04   -0.13038E-04  2018   0.262E-02    0.125E-01
RMM:  12    -0.113159693728E+04   -0.15139E-03   -0.81475E-05  1864   0.210E-02    0.139E-01
RMM:  13    -0.113159693482E+04    0.24624E-05   -0.42022E-05  1745   0.156E-02    0.115E-01
RMM:  14    -0.113159693653E+04   -0.17134E-05   -0.17189E-05  1527   0.969E-03    0.556E-02
RMM:  15    -0.113159696156E+04   -0.25032E-04   -0.90941E-06  1442   0.748E-03    0.339E-02
RMM:  16    -0.113159697853E+04   -0.16970E-04   -0.53966E-06  1402   0.576E-03    0.393E-02
RMM:  17    -0.113159698557E+04   -0.70377E-05   -0.22844E-06  1313   0.393E-03    0.198E-02
RMM:  18    -0.113159699677E+04   -0.11198E-04   -0.16036E-06  1250   0.300E-03    0.168E-02
RMM:  19    -0.113159701052E+04   -0.13759E-04   -0.10626E-06  1196   0.257E-03    0.139E-02
RMM:  20    -0.113159702069E+04   -0.10165E-04   -0.66114E-07  1116   0.195E-03    0.137E-02
RMM:  21    -0.113159702724E+04   -0.65499E-05   -0.51160E-07  1076   0.174E-03    0.804E-03
RMM:  22    -0.113159703908E+04   -0.11841E-04   -0.39272E-07  1041   0.128E-03    0.513E-03
RMM:  23    -0.113159704885E+04   -0.97722E-05   -0.38204E-07  1076   0.133E-03    0.847E-03
RMM:  24    -0.113159706128E+04   -0.12426E-04   -0.42506E-07  1094   0.120E-03    0.860E-03
RMM:  25    -0.113159706778E+04   -0.65025E-05   -0.31401E-07  1025   0.114E-03    0.460E-03
RMM:  26    -0.113159707608E+04   -0.82980E-05   -0.29454E-07   924   0.754E-04    0.194E-03
RMM:  27    -0.113159707988E+04   -0.38006E-05   -0.20932E-07   919   0.829E-04    0.304E-03
RMM:  28    -0.113159708508E+04   -0.52011E-05   -0.20701E-07   920   0.634E-04    0.141E-03
RMM:  29    -0.113159709054E+04   -0.54536E-05   -0.18955E-07   892   0.649E-04    0.824E-04
RMM:  30    -0.113159709444E+04   -0.39076E-05   -0.18984E-07   893   0.561E-04    0.471E-04
RMM:  31    -0.113159709812E+04   -0.36741E-05   -0.17916E-07   905   0.583E-04    0.608E-04
RMM:  32    -0.113159710134E+04   -0.32259E-05   -0.19047E-07   898   0.547E-04    0.650E-04
RMM:  33    -0.113159710394E+04   -0.26012E-05   -0.17824E-07   883   0.570E-04    0.233E-04
RMM:  34    -0.113159710585E+04   -0.19100E-05   -0.17521E-07   866   0.532E-04    0.441E-04
RMM:  35    -0.113159710699E+04   -0.11315E-05   -0.14549E-07   842   0.531E-04    0.162E-04
RMM:  36    -0.113159710782E+04   -0.82956E-06   -0.13330E-07   819   0.479E-04
   9 F= -.11394842E+04 E0= -.11394666E+04  d E =-.743491E-02  mag=    38.4400
 curvature:  -0.66 expect dE=-0.131E-01 dE for cont linesearch -0.495E-09
 trial: gam= 0.64914 g(F)=  0.186E-01 g(S)=  0.116E-02 ort = 0.779E-05 (trialstep = 0.260E+00)
 search vector abs. value=  0.541E-01
 bond charge predicted
       N       E                     dE             d eps       ncg     rms          rms(c)
DAV:   1    -0.113159705625E+04    0.50733E-04   -0.10159E+00  2052   0.204E+00    0.400E-01
RMM:   2    -0.113160439456E+04   -0.73383E-02   -0.23798E-02  2303   0.329E-01    0.271E+00
RMM:   3    -0.113159442937E+04    0.99652E-02   -0.63184E-03  2320   0.163E-01    0.374E-01
RMM:   4    -0.113160169987E+04   -0.72705E-02   -0.39589E-03  2221   0.145E-01    0.119E+00
RMM:   5    -0.113159956734E+04    0.21325E-02   -0.15066E-03  2250   0.878E-02    0.776E-01
RMM:   6    -0.113159939887E+04    0.16847E-03   -0.88775E-04  2132   0.702E-02    0.617E-01
RMM:   7    -0.113159920280E+04    0.19607E-03   -0.32764E-04  2211   0.393E-02    0.234E-01
RMM:   8    -0.113159964475E+04   -0.44196E-03   -0.25667E-04  2131   0.366E-02    0.300E-01
RMM:   9    -0.113159971878E+04   -0.74032E-04   -0.21482E-04  2149   0.344E-02    0.400E-01
RMM:  10    -0.113159949255E+04    0.22623E-03   -0.11232E-04  2013   0.243E-02    0.302E-01
RMM:  11    -0.113159951142E+04   -0.18868E-04   -0.62308E-05  1842   0.172E-02    0.102E-01
RMM:  12    -0.113159967128E+04   -0.15987E-03   -0.43832E-05  1765   0.154E-02    0.990E-02
RMM:  13    -0.113159970814E+04   -0.36852E-04   -0.28761E-05  1660   0.132E-02    0.117E-01
RMM:  14    -0.113159969192E+04    0.16221E-04   -0.11246E-05  1479   0.806E-03    0.485E-02
RMM:  15    -0.113159971003E+04   -0.18119E-04   -0.52919E-06  1381   0.580E-03    0.214E-02
RMM:  16    -0.113159972383E+04   -0.13797E-04   -0.23427E-06  1319   0.385E-03    0.158E-02
RMM:  17    -0.113159972844E+04   -0.46093E-05   -0.11421E-06  1215   0.276E-03    0.139E-02
RMM:  18    -0.113159973346E+04   -0.50146E-05   -0.82231E-07  1170   0.234E-03    0.994E-03
RMM:  19    -0.113159973877E+04   -0.53183E-05   -0.56480E-07  1138   0.189E-03    0.109E-02
RMM:  20    -0.113159974300E+04   -0.42253E-05   -0.34553E-07  1058   0.140E-03    0.777E-03
RMM:  21    -0.113159974579E+04   -0.27857E-05   -0.22729E-07   998   0.111E-03    0.452E-03
RMM:  22    -0.113159974978E+04   -0.39923E-05   -0.15372E-07   998   0.845E-04    0.189E-03
RMM:  23    -0.113159975572E+04   -0.59412E-05   -0.15572E-07  1022   0.690E-04    0.263E-03
RMM:  24    -0.113159975828E+04   -0.25588E-05   -0.11946E-07   907   0.718E-04    0.274E-03
RMM:  25    -0.113159976138E+04   -0.30977E-05   -0.10233E-07   814   0.563E-04    0.162E-03
RMM:  26    -0.113159976424E+04   -0.28623E-05   -0.89883E-08   815   0.504E-04    0.779E-04
RMM:  27    -0.113159976559E+04   -0.13542E-05   -0.67629E-08   754   0.464E-04    0.939E-04
RMM:  28    -0.113159976726E+04   -0.16651E-05   -0.62953E-08   746   0.430E-04    0.681E-04
RMM:  29    -0.113159976888E+04   -0.16195E-05   -0.61859E-08   763   0.420E-04    0.494E-04
RMM:  30    -0.113159977044E+04   -0.15660E-05   -0.60961E-08   752   0.409E-04    0.323E-04
RMM:  31    -0.113159977199E+04   -0.15523E-05   -0.66005E-08   772   0.405E-04    0.206E-04
RMM:  32    -0.113159977317E+04   -0.11750E-05   -0.65382E-08   782   0.405E-04    0.264E-04
RMM:  33    -0.113159977419E+04   -0.10160E-05   -0.65530E-08   756   0.397E-04    0.220E-04
RMM:  34    -0.113159977491E+04   -0.72680E-06   -0.61081E-08   746   0.398E-04
  10 F= -.11394881E+04 E0= -.11394704E+04  d E =-.381143E-02  mag=    38.4399
 trial-energy change:   -0.003811  1 .order   -0.003833   -0.005123   -0.002542
 step:   0.5447(harm=  0.5153)  dis= 0.00704  next Energy= -1139.489427 (dE=-0.518E-02)
 bond charge predicted
       N       E                     dE             d eps       ncg     rms          rms(c)
DAV:   1    -0.113159644464E+04    0.33295E-02   -0.12268E+00  2004   0.224E+00    0.439E-01
RMM:   2    -0.113160542706E+04   -0.89824E-02   -0.28761E-02  2301   0.362E-01    0.300E+00
RMM:   3    -0.113159344222E+04    0.11985E-01   -0.76815E-03  2321   0.179E-01    0.409E-01
RMM:   4    -0.113160219285E+04   -0.87506E-02   -0.48174E-03  2220   0.160E-01    0.135E+00
RMM:   5    -0.113159944344E+04    0.27494E-02   -0.18716E-03  2245   0.981E-02    0.840E-01
RMM:   6    -0.113159930439E+04    0.13905E-03   -0.10865E-03  2134   0.778E-02    0.675E-01
RMM:   7    -0.113159906308E+04    0.24131E-03   -0.39543E-04  2214   0.430E-02    0.262E-01
RMM:   8    -0.113159957857E+04   -0.51549E-03   -0.30889E-04  2149   0.401E-02    0.326E-01
RMM:   9    -0.113159967331E+04   -0.94742E-04   -0.25985E-04  2161   0.378E-02    0.437E-01
RMM:  10    -0.113159940830E+04    0.26501E-03   -0.13703E-04  2055   0.268E-02    0.332E-01
RMM:  11    -0.113159942171E+04   -0.13407E-04   -0.75364E-05  1892   0.188E-02    0.113E-01
RMM:  12    -0.113159960902E+04   -0.18731E-03   -0.53191E-05  1787   0.169E-02    0.107E-01
RMM:  13    -0.113159965192E+04   -0.42899E-04   -0.34344E-05  1701   0.144E-02    0.125E-01
RMM:  14    -0.113159963406E+04    0.17858E-04   -0.13415E-05  1497   0.873E-03    0.524E-02
RMM:  15    -0.113159965424E+04   -0.20179E-04   -0.63238E-06  1406   0.629E-03    0.236E-02
RMM:  16    -0.113159966976E+04   -0.15516E-04   -0.27882E-06  1342   0.418E-03    0.173E-02
RMM:  17    -0.113159967501E+04   -0.52558E-05   -0.13426E-06  1237   0.299E-03    0.153E-02
RMM:  18    -0.113159968087E+04   -0.58593E-05   -0.97231E-07  1205   0.252E-03    0.108E-02
RMM:  19    -0.113159968704E+04   -0.61663E-05   -0.66846E-07  1149   0.205E-03    0.118E-02
RMM:  20    -0.113159969213E+04   -0.50884E-05   -0.39884E-07  1084   0.150E-03    0.849E-03
RMM:  21    -0.113159969529E+04   -0.31626E-05   -0.26577E-07  1008   0.121E-03    0.499E-03
RMM:  22    -0.113159970012E+04   -0.48329E-05   -0.18032E-07  1013   0.904E-04    0.194E-03
RMM:  23    -0.113159970706E+04   -0.69352E-05   -0.18187E-07  1052   0.740E-04    0.270E-03
RMM:  24    -0.113159971035E+04   -0.32896E-05   -0.14284E-07   940   0.769E-04    0.287E-03
RMM:  25    -0.113159971353E+04   -0.31791E-05   -0.11732E-07   818   0.611E-04    0.193E-03
RMM:  26    -0.113159971608E+04   -0.25497E-05   -0.95469E-08   818   0.554E-04    0.123E-03
RMM:  27    -0.113159971829E+04   -0.22123E-05   -0.80832E-08   753   0.484E-04    0.760E-04
RMM:  28    -0.113159972004E+04   -0.17563E-05   -0.72062E-08   789   0.471E-04    0.107E-03
RMM:  29    -0.113159972209E+04   -0.20459E-05   -0.74154E-08   796   0.444E-04    0.429E-04
RMM:  30    -0.113159972445E+04   -0.23627E-05   -0.83348E-08   835   0.438E-04    0.364E-04
RMM:  31    -0.113159972600E+04   -0.15465E-05   -0.76946E-08   803   0.427E-04    0.252E-04
RMM:  32    -0.113159972751E+04   -0.15069E-05   -0.77086E-08   757   0.417E-04    0.327E-04
RMM:  33    -0.113159972868E+04   -0.11762E-05   -0.80009E-08   785   0.426E-04    0.134E-04
RMM:  34    -0.113159972952E+04   -0.83690E-06   -0.77339E-08   772   0.419E-04
  11 F= -.11394893E+04 E0= -.11394717E+04  d E =-.502424E-02  mag=    38.4398
 curvature:  -0.70 expect dE=-0.861E-02 dE for cont linesearch -0.165E-04
 trial: gam= 0.68257 g(F)=  0.117E-01 g(S)=  0.687E-03 ort =-0.113E-02 (trialstep = 0.317E+00)
 search vector abs. value=  0.360E-01
 bond charge predicted
       N       E                     dE             d eps       ncg     rms          rms(c)
DAV:   1    -0.113159888771E+04    0.84097E-03   -0.95035E-01  2028   0.208E+00    0.406E-01
RMM:   2    -0.113160727662E+04   -0.83889E-02   -0.24865E-02  2283   0.339E-01    0.297E+00
RMM:   3    -0.113159503238E+04    0.12244E-01   -0.69535E-03  2285   0.175E-01    0.437E-01
RMM:   4    -0.113160378044E+04   -0.87481E-02   -0.48506E-03  2244   0.158E-01    0.152E+00
RMM:   5    -0.113160012918E+04    0.36513E-02   -0.21809E-03  2253   0.105E-01    0.631E-01
RMM:   6    -0.113160069577E+04   -0.56659E-03   -0.11183E-03  2154   0.796E-02    0.592E-01
RMM:   7    -0.113160037455E+04    0.32122E-03   -0.38123E-04  2223   0.433E-02    0.292E-01
RMM:   8    -0.113160068225E+04   -0.30770E-03   -0.24969E-04  2134   0.355E-02    0.239E-01
RMM:   9    -0.113160081444E+04   -0.13219E-03   -0.21705E-04  2130   0.345E-02    0.370E-01
RMM:  10    -0.113160064619E+04    0.16825E-03   -0.12427E-04  2064   0.261E-02    0.302E-01
RMM:  11    -0.113160062217E+04    0.24020E-04   -0.64611E-05  1850   0.179E-02    0.172E-01
RMM:  12    -0.113160072428E+04   -0.10211E-03   -0.40814E-05  1754   0.144E-02    0.732E-02
RMM:  13    -0.113160079383E+04   -0.69559E-04   -0.31762E-05  1681   0.136E-02    0.994E-02
RMM:  14    -0.113160078085E+04    0.12983E-04   -0.13522E-05  1485   0.902E-03    0.602E-02
RMM:  15    -0.113160078618E+04   -0.53322E-05   -0.50705E-06  1393   0.574E-03    0.234E-02
RMM:  16    -0.113160079750E+04   -0.11314E-04   -0.27235E-06  1334   0.402E-03    0.185E-02
RMM:  17    -0.113160080193E+04   -0.44295E-05   -0.13301E-06  1227   0.303E-03    0.150E-02
RMM:  18    -0.113160080455E+04   -0.26242E-05   -0.84521E-07  1160   0.235E-03    0.128E-02
RMM:  19    -0.113160080784E+04   -0.32876E-05   -0.69149E-07  1143   0.221E-03    0.706E-03
RMM:  20    -0.113160081108E+04   -0.32369E-05   -0.33977E-07  1126   0.140E-03    0.781E-03
RMM:  21    -0.113160081254E+04   -0.14618E-05   -0.24091E-07  1056   0.113E-03    0.723E-03
RMM:  22    -0.113160081455E+04   -0.20094E-05   -0.16215E-07   989   0.940E-04    0.291E-03
RMM:  23    -0.113160081832E+04   -0.37764E-05   -0.15201E-07  1027   0.684E-04    0.343E-03
RMM:  24    -0.113160082047E+04   -0.21479E-05   -0.13586E-07   954   0.802E-04    0.538E-03
RMM:  25    -0.113160082229E+04   -0.18230E-05   -0.11159E-07   909   0.654E-04    0.346E-03
RMM:  26    -0.113160082380E+04   -0.15091E-05   -0.82296E-08   809   0.571E-04    0.115E-03
RMM:  27    -0.113160082590E+04   -0.20924E-05   -0.84863E-08   808   0.484E-04    0.133E-03
RMM:  28    -0.113160082716E+04   -0.12690E-05   -0.70667E-08   834   0.501E-04    0.153E-03
RMM:  29    -0.113160082870E+04   -0.15357E-05   -0.70217E-08   797   0.442E-04    0.557E-04
RMM:  30    -0.113160083077E+04   -0.20652E-05   -0.85933E-08   863   0.451E-04    0.448E-04
RMM:  31    -0.113160083228E+04   -0.15190E-05   -0.84469E-08   844   0.442E-04    0.238E-04
RMM:  32    -0.113160083386E+04   -0.15738E-05   -0.91901E-08   827   0.443E-04    0.498E-04
RMM:  33    -0.113160083520E+04   -0.13417E-05   -0.10262E-07   859   0.456E-04    0.232E-04
RMM:  34    -0.113160083603E+04   -0.82752E-06   -0.89447E-08   823   0.451E-04
  12 F= -.11394919E+04 E0= -.11394743E+04  d E =-.265188E-02  mag=    38.4394
 trial-energy change:   -0.002652  1 .order   -0.002682   -0.003670   -0.001694
 step:   0.6507(harm=  0.5880)  dis= 0.00825  next Energy= -1139.492781 (dE=-0.351E-02)
 bond charge predicted
       N       E                     dE             d eps       ncg     rms          rms(c)
DAV:   1    -0.113159769419E+04    0.31410E-02   -0.10586E+00  1986   0.220E+00    0.428E-01
RMM:   2    -0.113160703461E+04   -0.93404E-02   -0.27695E-02  2280   0.358E-01    0.313E+00
RMM:   3    -0.113159355256E+04    0.13482E-01   -0.77314E-03  2283   0.184E-01    0.468E-01
RMM:   4    -0.113160323963E+04   -0.96871E-02   -0.54213E-03  2245   0.167E-01    0.162E+00
RMM:   5    -0.113159907288E+04    0.41667E-02   -0.24613E-03  2254   0.112E-01    0.659E-01
RMM:   6    -0.113159971601E+04   -0.64312E-03   -0.12443E-03  2152   0.839E-02    0.619E-01
RMM:   7    -0.113159937068E+04    0.34532E-03   -0.42501E-04  2236   0.458E-02    0.309E-01
RMM:   8    -0.113159970360E+04   -0.33292E-03   -0.27788E-04  2135   0.374E-02    0.252E-01
RMM:   9    -0.113159984320E+04   -0.13960E-03   -0.24058E-04  2143   0.363E-02    0.387E-01
RMM:  10    -0.113159966323E+04    0.17997E-03   -0.13872E-04  2086   0.274E-02    0.317E-01
RMM:  11    -0.113159963499E+04    0.28242E-04   -0.72207E-05  1875   0.190E-02    0.180E-01
RMM:  12    -0.113159974573E+04   -0.11074E-03   -0.45225E-05  1780   0.152E-02    0.771E-02
RMM:  13    -0.113159981975E+04   -0.74027E-04   -0.34941E-05  1705   0.143E-02    0.103E-01
RMM:  14    -0.113159980644E+04    0.13314E-04   -0.14594E-05  1494   0.934E-03    0.610E-02
RMM:  15    -0.113159981256E+04   -0.61223E-05   -0.55214E-06  1400   0.595E-03    0.247E-02
RMM:  16    -0.113159982423E+04   -0.11671E-04   -0.29828E-06  1340   0.420E-03    0.194E-02
RMM:  17    -0.113159982877E+04   -0.45411E-05   -0.14498E-06  1236   0.316E-03    0.157E-02
RMM:  18    -0.113159983156E+04   -0.27858E-05   -0.92369E-07  1175   0.245E-03    0.132E-02
RMM:  19    -0.113159983511E+04   -0.35536E-05   -0.74655E-07  1150   0.228E-03    0.745E-03
RMM:  20    -0.113159983855E+04   -0.34423E-05   -0.36931E-07  1135   0.146E-03    0.838E-03
RMM:  21    -0.113159984010E+04   -0.15407E-05   -0.26376E-07  1074   0.119E-03    0.762E-03
RMM:  22    -0.113159984228E+04   -0.21869E-05   -0.17699E-07   989   0.978E-04    0.302E-03
RMM:  23    -0.113159984615E+04   -0.38669E-05   -0.16373E-07  1023   0.735E-04    0.338E-03
RMM:  24    -0.113159984856E+04   -0.24107E-05   -0.15098E-07   984   0.844E-04    0.552E-03
RMM:  25    -0.113159985053E+04   -0.19734E-05   -0.12450E-07   927   0.683E-04    0.382E-03
RMM:  26    -0.113159985214E+04   -0.16024E-05   -0.91843E-08   815   0.610E-04    0.117E-03
RMM:  27    -0.113159985470E+04   -0.25646E-05   -0.10132E-07   838   0.488E-04    0.128E-03
RMM:  28    -0.113159985663E+04   -0.19281E-05   -0.91096E-08   878   0.521E-04    0.125E-03
RMM:  29    -0.113159985775E+04   -0.11253E-05   -0.73437E-08   808   0.461E-04    0.720E-04
RMM:  30    -0.113159985979E+04   -0.20342E-05   -0.88841E-08   851   0.451E-04    0.446E-04
RMM:  31    -0.113159986153E+04   -0.17453E-05   -0.91844E-08   846   0.458E-04    0.407E-04
RMM:  32    -0.113159986314E+04   -0.16109E-05   -0.10260E-07   856   0.455E-04    0.580E-04
RMM:  33    -0.113159986455E+04   -0.14105E-05   -0.10719E-07   887   0.471E-04    0.175E-04
RMM:  34    -0.113159986542E+04   -0.86910E-06   -0.93952E-08   814   0.452E-04
  13 F= -.11394926E+04 E0= -.11394750E+04  d E =-.331272E-02  mag=    38.4390
 curvature:  -0.86 expect dE=-0.913E-02 dE for cont linesearch -0.366E-04
 trial: gam= 0.83894 g(F)=  0.104E-01 g(S)=  0.198E-03 ort =-0.123E-02 (trialstep = 0.383E+00)
 search vector abs. value=  0.338E-01
 bond charge predicted
       N       E                     dE             d eps       ncg     rms          rms(c)
DAV:   1    -0.113159825793E+04    0.16066E-02   -0.12305E+00  1956   0.239E+00    0.427E-01
RMM:   2    -0.113161033311E+04   -0.12075E-01   -0.32565E-02  2262   0.387E-01    0.350E+00
RMM:   3    -0.113159340776E+04    0.16925E-01   -0.90826E-03  2279   0.205E-01    0.558E-01
RMM:   4    -0.113160431881E+04   -0.10911E-01   -0.55756E-03  2262   0.167E-01    0.174E+00
RMM:   5    -0.113160026418E+04    0.40546E-02   -0.28871E-03  2207   0.123E-01    0.727E-01
RMM:   6    -0.113160083178E+04   -0.56759E-03   -0.13251E-03  2137   0.881E-02    0.737E-01
RMM:   7    -0.113160033413E+04    0.49765E-03   -0.46614E-04  2261   0.475E-02    0.364E-01
RMM:   8    -0.113160076748E+04   -0.43334E-03   -0.30421E-04  2145   0.393E-02    0.272E-01
RMM:   9    -0.113160099669E+04   -0.22922E-03   -0.26384E-04  2108   0.382E-02    0.447E-01
RMM:  10    -0.113160073790E+04    0.25880E-03   -0.16050E-04  2066   0.296E-02    0.383E-01
RMM:  11    -0.113160067846E+04    0.59435E-04   -0.79840E-05  1916   0.199E-02    0.223E-01
RMM:  12    -0.113160082083E+04   -0.14237E-03   -0.53237E-05  1796   0.164E-02    0.771E-02
RMM:  13    -0.113160092211E+04   -0.10128E-03   -0.41681E-05  1740   0.154E-02    0.815E-02
RMM:  14    -0.113160092883E+04   -0.67200E-05   -0.16855E-05  1521   0.100E-02    0.449E-02
RMM:  15    -0.113160093258E+04   -0.37479E-05   -0.61984E-06  1407   0.630E-03    0.278E-02
RMM:  16    -0.113160093794E+04   -0.53680E-05   -0.30172E-06  1342   0.424E-03    0.155E-02
RMM:  17    -0.113160094179E+04   -0.38417E-05   -0.15256E-06  1266   0.316E-03    0.126E-02
RMM:  18    -0.113160094447E+04   -0.26853E-05   -0.10625E-06  1219   0.253E-03    0.135E-02
RMM:  19    -0.113160094719E+04   -0.27151E-05   -0.73679E-07  1143   0.228E-03    0.668E-03
RMM:  20    -0.113160095015E+04   -0.29668E-05   -0.38837E-07  1130   0.148E-03    0.755E-03
RMM:  21    -0.113160095160E+04   -0.14457E-05   -0.28706E-07  1061   0.132E-03    0.744E-03
RMM:  22    -0.113160095362E+04   -0.20168E-05   -0.16827E-07  1005   0.936E-04    0.562E-03
RMM:  23    -0.113160095633E+04   -0.27175E-05   -0.13394E-07   994   0.731E-04    0.246E-03
RMM:  24    -0.113160095829E+04   -0.19586E-05   -0.12702E-07   910   0.791E-04    0.413E-03
RMM:  25    -0.113160096002E+04   -0.17299E-05   -0.10581E-07   909   0.671E-04    0.349E-03
RMM:  26    -0.113160096129E+04   -0.12723E-05   -0.77055E-08   813   0.589E-04    0.215E-03
RMM:  27    -0.113160096318E+04   -0.18872E-05   -0.72831E-08   784   0.453E-04    0.102E-03
RMM:  28    -0.113160096415E+04   -0.96498E-06   -0.56984E-08   765   0.490E-04
  14 F= -.11394948E+04 E0= -.11394772E+04  d E =-.223609E-02  mag=    38.4393
 trial-energy change:   -0.002236  1 .order   -0.002271   -0.003653   -0.000890
 step:   0.5211(harm=  0.5069)  dis= 0.00645  next Energy= -1139.494978 (dE=-0.239E-02)
 bond charge predicted
       N       E                     dE             d eps       ncg     rms          rms(c)
DAV:   1    -0.113160033723E+04    0.62595E-03   -0.15884E-01  2004   0.858E-01    0.154E-01
RMM:   2    -0.113160188217E+04   -0.15449E-02   -0.42128E-03  2268   0.139E-01    0.127E+00
RMM:   3    -0.113159930152E+04    0.25807E-02   -0.11996E-03  2261   0.756E-02    0.182E-01
RMM:   4    -0.113160096678E+04   -0.16653E-02   -0.70227E-04  2244   0.605E-02    0.585E-01
RMM:   5    -0.113160054598E+04    0.42080E-03   -0.33098E-04  2141   0.412E-02    0.292E-01
RMM:   6    -0.113160063390E+04   -0.87914E-04   -0.18596E-04  2035   0.333E-02    0.302E-01
RMM:   7    -0.113160053595E+04    0.97949E-04   -0.59409E-05  1948   0.171E-02    0.129E-01
RMM:   8    -0.113160063575E+04   -0.99803E-04   -0.41402E-05  1772   0.148E-02    0.988E-02
RMM:   9    -0.113160068605E+04   -0.50302E-04   -0.37037E-05  1813   0.146E-02    0.174E-01
RMM:  10    -0.113160063657E+04    0.49483E-04   -0.22052E-05  1634   0.115E-02    0.157E-01
RMM:  11    -0.113160062325E+04    0.13318E-04   -0.10226E-05  1456   0.754E-03    0.946E-02
RMM:  12    -0.113160064985E+04   -0.26594E-04   -0.71081E-06  1416   0.637E-03    0.269E-02
RMM:  13    -0.113160067827E+04   -0.28425E-04   -0.63474E-06  1428   0.623E-03    0.349E-02
RMM:  14    -0.113160068087E+04   -0.25970E-05   -0.27424E-06  1318   0.436E-03    0.220E-02
RMM:  15    -0.113160068129E+04   -0.42356E-06   -0.98600E-07  1168   0.285E-03
  15 F= -.11394949E+04 E0= -.11394774E+04  d E =-.236198E-02  mag=    38.4394
 curvature:  -0.89 expect dE=-0.103E-01 dE for cont linesearch -0.168E-05
 trial: gam= 1.00157 g(F)=  0.109E-01 g(S)=  0.751E-03 ort =-0.253E-03 (trialstep = 0.309E+00)
 search vector abs. value=  0.450E-01
 bond charge predicted
       N       E                     dE             d eps       ncg     rms          rms(c)
DAV:   1    -0.113160074059E+04   -0.59717E-04   -0.11158E+00  1944   0.230E+00    0.349E-01
RMM:   2    -0.113161070996E+04   -0.99694E-02   -0.27818E-02  2202   0.355E-01    0.312E+00
RMM:   3    -0.113159702882E+04    0.13681E-01   -0.72574E-03  2252   0.189E-01    0.565E-01
RMM:   4    -0.113160468310E+04   -0.76543E-02   -0.38183E-03  2280   0.139E-01    0.137E+00
RMM:   5    -0.113160269870E+04    0.19844E-02   -0.19834E-03  2200   0.102E-01    0.618E-01
RMM:   6    -0.113160308660E+04   -0.38789E-03   -0.94691E-04  2126   0.749E-02    0.674E-01
RMM:   7    -0.113160256231E+04    0.52428E-03   -0.35498E-04  2221   0.419E-02    0.323E-01
RMM:   8    -0.113160298200E+04   -0.41968E-03   -0.23957E-04  2156   0.342E-02    0.312E-01
RMM:   9    -0.113160316243E+04   -0.18043E-03   -0.26069E-04  2106   0.383E-02    0.519E-01
RMM:  10    -0.113160279049E+04    0.37194E-03   -0.13875E-04  2055   0.272E-02    0.366E-01
RMM:  11    -0.113160282236E+04   -0.31866E-04   -0.63277E-05  1858   0.175E-02    0.208E-01
RMM:  12    -0.113160296570E+04   -0.14335E-03   -0.45611E-05  1777   0.157E-02    0.582E-02
RMM:  13    -0.113160307105E+04   -0.10534E-03   -0.32196E-05  1689   0.135E-02    0.725E-02
RMM:  14    -0.113160308732E+04   -0.16276E-04   -0.15778E-05  1517   0.974E-03    0.438E-02
RMM:  15    -0.113160309105E+04   -0.37270E-05   -0.56075E-06  1409   0.600E-03    0.213E-02
RMM:  16    -0.113160309772E+04   -0.66713E-05   -0.24747E-06  1325   0.388E-03    0.174E-02
RMM:  17    -0.113160310364E+04   -0.59213E-05   -0.12928E-06  1241   0.294E-03    0.991E-03
RMM:  18    -0.113160310913E+04   -0.54872E-05   -0.97701E-07  1201   0.230E-03    0.143E-02
RMM:  19    -0.113160311359E+04   -0.44592E-05   -0.74473E-07  1160   0.222E-03    0.797E-03
RMM:  20    -0.113160311875E+04   -0.51586E-05   -0.39291E-07  1066   0.136E-03    0.835E-03
RMM:  21    -0.113160312154E+04   -0.27860E-05   -0.31870E-07  1043   0.135E-03    0.914E-03
RMM:  22    -0.113160312559E+04   -0.40522E-05   -0.24285E-07  1051   0.102E-03    0.614E-03
RMM:  23    -0.113160312914E+04   -0.35561E-05   -0.19073E-07   987   0.925E-04    0.300E-03
RMM:  24    -0.113160313465E+04   -0.55023E-05   -0.21616E-07   973   0.749E-04    0.411E-03
RMM:  25    -0.113160313717E+04   -0.25288E-05   -0.16955E-07   959   0.843E-04    0.426E-03
RMM:  26    -0.113160314010E+04   -0.29275E-05   -0.14968E-07   877   0.641E-04    0.172E-03
RMM:  27    -0.113160314411E+04   -0.40099E-05   -0.15775E-07   919   0.601E-04    0.116E-03
RMM:  28    -0.113160314664E+04   -0.25237E-05   -0.14407E-07   906   0.586E-04    0.169E-03
RMM:  29    -0.113160314879E+04   -0.21582E-05   -0.13016E-07   867   0.549E-04    0.111E-03
RMM:  30    -0.113160315170E+04   -0.29076E-05   -0.16018E-07   918   0.524E-04    0.462E-04
RMM:  31    -0.113160315373E+04   -0.20314E-05   -0.14077E-07   875   0.536E-04    0.277E-04
RMM:  32    -0.113160315567E+04   -0.19364E-05   -0.15382E-07   865   0.498E-04    0.300E-04
RMM:  33    -0.113160315702E+04   -0.13506E-05   -0.13216E-07   859   0.524E-04    0.260E-04
RMM:  34    -0.113160315785E+04   -0.83231E-06   -0.11426E-07   802   0.459E-04
  16 F= -.11394972E+04 E0= -.11394796E+04  d E =-.226929E-02  mag=    38.4387
 trial-energy change:   -0.002269  1 .order   -0.002274   -0.003505   -0.001043
 step:   0.4395(harm=  0.4395)  dis= 0.00613  next Energy= -1139.497441 (dE=-0.250E-02)
 bond charge predicted
       N       E                     dE             d eps       ncg     rms          rms(c)
DAV:   1    -0.113160303508E+04    0.12194E-03   -0.20031E-01  2100   0.975E-01    0.147E-01
RMM:   2    -0.113160473526E+04   -0.17002E-02   -0.49741E-03  2209   0.150E-01    0.129E+00
RMM:   3    -0.113160203803E+04    0.26972E-02   -0.12906E-03  2249   0.803E-02    0.214E-01
RMM:   4    -0.113160362327E+04   -0.15852E-02   -0.67542E-04  2261   0.594E-02    0.550E-01
RMM:   5    -0.113160334368E+04    0.27958E-03   -0.31819E-04  2131   0.401E-02    0.292E-01
RMM:   6    -0.113160341426E+04   -0.70576E-04   -0.18251E-04  2015   0.330E-02    0.312E-01
RMM:   7    -0.113160329495E+04    0.11931E-03   -0.62864E-05  1939   0.177E-02    0.136E-01
RMM:   8    -0.113160340969E+04   -0.11474E-03   -0.44562E-05  1829   0.149E-02    0.134E-01
RMM:   9    -0.113160346206E+04   -0.52372E-04   -0.49819E-05  1830   0.171E-02    0.238E-01
RMM:  10    -0.113160336933E+04    0.92735E-04   -0.26406E-05  1731   0.123E-02    0.172E-01
RMM:  11    -0.113160337693E+04   -0.75974E-05   -0.11617E-05  1461   0.776E-03    0.971E-02
RMM:  12    -0.113160341289E+04   -0.35965E-04   -0.81190E-06  1453   0.705E-03    0.196E-02
RMM:  13    -0.113160344714E+04   -0.34249E-04   -0.64739E-06  1429   0.620E-03    0.279E-02
RMM:  14    -0.113160345226E+04   -0.51238E-05   -0.26734E-06  1309   0.431E-03    0.217E-02
RMM:  15    -0.113160345199E+04    0.27695E-06   -0.10634E-06  1191   0.290E-03
  17 F= -.11394974E+04 E0= -.11394798E+04  d E =-.247582E-02  mag=    38.4386
 curvature:  -0.87 expect dE=-0.125E-01 dE for cont linesearch -0.630E-07
 trial: gam= 1.26425 g(F)=  0.143E-01 g(S)=  0.788E-04 ort = 0.571E-04 (trialstep = 0.174E+00)
 search vector abs. value=  0.865E-01
 bond charge predicted
       N       E                     dE             d eps       ncg     rms          rms(c)
DAV:   1    -0.113160426659E+04   -0.81432E-03   -0.66254E-01  1950   0.177E+00    0.266E-01
RMM:   2    -0.113161108491E+04   -0.68183E-02   -0.16666E-02  2215   0.277E-01    0.270E+00
RMM:   3    -0.113160086903E+04    0.10216E-01   -0.48543E-03  2230   0.155E-01    0.570E-01
RMM:   4    -0.113160599095E+04   -0.51219E-02   -0.22737E-03  2287   0.108E-01    0.979E-01
RMM:   5    -0.113160562081E+04    0.37014E-03   -0.10967E-03  2174   0.763E-02    0.622E-01
RMM:   6    -0.113160570186E+04   -0.81056E-04   -0.63291E-04  2109   0.613E-02    0.692E-01
RMM:   7    -0.113160511817E+04    0.58370E-03   -0.21589E-04  2176   0.317E-02    0.333E-01
RMM:   8    -0.113160547345E+04   -0.35528E-03   -0.14583E-04  2040   0.268E-02    0.155E-01
RMM:   9    -0.113160576298E+04   -0.28954E-03   -0.16534E-04  2062   0.298E-02    0.365E-01
RMM:  10    -0.113160557648E+04    0.18650E-03   -0.10876E-04  2010   0.247E-02    0.360E-01
RMM:  11    -0.113160546758E+04    0.10891E-03   -0.47179E-05  1814   0.153E-02    0.286E-01
RMM:  12    -0.113160549495E+04   -0.27378E-04   -0.22876E-05  1674   0.105E-02    0.124E-01
RMM:  13    -0.113160561118E+04   -0.11623E-03   -0.21727E-05  1589   0.111E-02    0.557E-02
RMM:  14    -0.113160566540E+04   -0.54220E-04   -0.95265E-06  1475   0.759E-03    0.263E-02
RMM:  15    -0.113160568307E+04   -0.17663E-04   -0.45398E-06  1386   0.545E-03    0.200E-02
RMM:  16    -0.113160569190E+04   -0.88294E-05   -0.20259E-06  1289   0.382E-03    0.159E-02
RMM:  17    -0.113160569527E+04   -0.33761E-05   -0.10839E-06  1188   0.286E-03    0.135E-02
RMM:  18    -0.113160569889E+04   -0.36214E-05   -0.59312E-07  1137   0.208E-03    0.104E-02
RMM:  19    -0.113160570314E+04   -0.42421E-05   -0.38918E-07  1098   0.160E-03    0.860E-03
RMM:  20    -0.113160570779E+04   -0.46495E-05   -0.25389E-07  1053   0.110E-03    0.822E-03
RMM:  21    -0.113160571057E+04   -0.27796E-05   -0.20731E-07  1005   0.105E-03    0.669E-03
RMM:  22    -0.113160571507E+04   -0.45083E-05   -0.16921E-07  1003   0.784E-04    0.438E-03
RMM:  23    -0.113160571848E+04   -0.34098E-05   -0.14564E-07   915   0.764E-04    0.161E-03
RMM:  24    -0.113160572229E+04   -0.38059E-05   -0.15088E-07   943   0.692E-04    0.239E-03
RMM:  25    -0.113160572419E+04   -0.19046E-05   -0.11102E-07   894   0.653E-04    0.234E-03
RMM:  26    -0.113160572719E+04   -0.29987E-05   -0.11761E-07   843   0.522E-04    0.108E-03
RMM:  27    -0.113160572863E+04   -0.14361E-05   -0.83939E-08   797   0.533E-04    0.111E-03
RMM:  28    -0.113160573112E+04   -0.24954E-05   -0.10727E-07   814   0.456E-04    0.750E-04
RMM:  29    -0.113160573297E+04   -0.18465E-05   -0.91720E-08   862   0.498E-04    0.610E-04
RMM:  30    -0.113160573464E+04   -0.16724E-05   -0.10027E-07   845   0.428E-04    0.321E-04
RMM:  31    -0.113160573612E+04   -0.14745E-05   -0.86505E-08   806   0.464E-04    0.175E-04
RMM:  32    -0.113160573717E+04   -0.10544E-05   -0.87981E-08   769   0.413E-04    0.267E-04
RMM:  33    -0.113160573794E+04   -0.76975E-06   -0.76772E-08   780   0.441E-04
  18 F= -.11394994E+04 E0= -.11394818E+04  d E =-.199451E-02  mag=    38.4379
 trial-energy change:   -0.001995  1 .order   -0.001992   -0.002519   -0.001466
 step:   0.4171(harm=  0.4171)  dis= 0.00778  next Energy= -1139.500435 (dE=-0.301E-02)
 bond charge predicted
       N       E                     dE             d eps       ncg     rms          rms(c)
DAV:   1    -0.113160432014E+04    0.14170E-02   -0.12848E+00  1956   0.247E+00    0.366E-01
RMM:   2    -0.113161668047E+04   -0.12360E-01   -0.31980E-02  2217   0.384E-01    0.359E+00
RMM:   3    -0.113159933899E+04    0.17341E-01   -0.89216E-03  2240   0.210E-01    0.736E-01
RMM:   4    -0.113160815913E+04   -0.88201E-02   -0.42648E-03  2285   0.147E-01    0.140E+00
RMM:   5    -0.113160696237E+04    0.11968E-02   -0.21211E-03  2196   0.107E-01    0.805E-01
RMM:   6    -0.113160712853E+04   -0.16616E-03   -0.11311E-03  2127   0.818E-02    0.876E-01
RMM:   7    -0.113160626226E+04    0.86626E-03   -0.38813E-04  2235   0.422E-02    0.373E-01
RMM:   8    -0.113160688306E+04   -0.62080E-03   -0.29056E-04  2116   0.381E-02    0.268E-01
RMM:   9    -0.113160722237E+04   -0.33931E-03   -0.29525E-04  2107   0.402E-02    0.506E-01
RMM:  10    -0.113160687594E+04    0.34643E-03   -0.18618E-04  2102   0.319E-02    0.465E-01
RMM:  11    -0.113160676045E+04    0.11549E-03   -0.82129E-05  1937   0.200E-02    0.352E-01
RMM:  12    -0.113160681005E+04   -0.49600E-04   -0.42687E-05  1816   0.144E-02    0.138E-01
RMM:  13    -0.113160699486E+04   -0.18481E-03   -0.41505E-05  1720   0.151E-02    0.573E-02
RMM:  14    -0.113160706704E+04   -0.72172E-04   -0.16666E-05  1557   0.986E-03    0.300E-02
RMM:  15    -0.113160708587E+04   -0.18835E-04   -0.74356E-06  1444   0.678E-03    0.283E-02
RMM:  16    -0.113160709429E+04   -0.84236E-05   -0.29816E-06  1338   0.449E-03    0.212E-02
RMM:  17    -0.113160709848E+04   -0.41840E-05   -0.16557E-06  1270   0.335E-03    0.155E-02
RMM:  18    -0.113160710411E+04   -0.56266E-05   -0.92678E-07  1185   0.252E-03    0.977E-03
RMM:  19    -0.113160710996E+04   -0.58551E-05   -0.61978E-07  1136   0.196E-03    0.835E-03
RMM:  20    -0.113160711611E+04   -0.61488E-05   -0.39235E-07  1086   0.140E-03    0.976E-03
RMM:  21    -0.113160711936E+04   -0.32503E-05   -0.30695E-07  1044   0.129E-03    0.832E-03
RMM:  22    -0.113160712545E+04   -0.60857E-05   -0.23960E-07  1045   0.951E-04    0.564E-03
RMM:  23    -0.113160713035E+04   -0.49055E-05   -0.21775E-07  1011   0.924E-04    0.239E-03
RMM:  24    -0.113160713457E+04   -0.42192E-05   -0.20293E-07   968   0.864E-04    0.317E-03
RMM:  25    -0.113160713763E+04   -0.30595E-05   -0.15868E-07   930   0.767E-04    0.292E-03
RMM:  26    -0.113160714115E+04   -0.35186E-05   -0.14839E-07   896   0.630E-04    0.167E-03
RMM:  27    -0.113160714322E+04   -0.20768E-05   -0.11455E-07   854   0.599E-04    0.143E-03
RMM:  28    -0.113160714654E+04   -0.33120E-05   -0.13836E-07   871   0.529E-04    0.114E-03
RMM:  29    -0.113160714918E+04   -0.26477E-05   -0.12818E-07   916   0.558E-04    0.842E-04
RMM:  30    -0.113160715145E+04   -0.22704E-05   -0.13586E-07   898   0.491E-04    0.488E-04
RMM:  31    -0.113160715343E+04   -0.19717E-05   -0.12415E-07   855   0.515E-04    0.220E-04
RMM:  32    -0.113160715490E+04   -0.14765E-05   -0.12452E-07   837   0.474E-04    0.356E-04
RMM:  33    -0.113160715594E+04   -0.10372E-05   -0.10671E-07   830   0.487E-04    0.265E-04
RMM:  34    -0.113160715666E+04   -0.72126E-06   -0.93318E-08   777   0.437E-04
  19 F= -.11395004E+04 E0= -.11394828E+04  d E =-.300766E-02  mag=    38.4372
 curvature:  -1.25 expect dE=-0.138E-01 dE for cont linesearch -0.179E-08
 trial: gam= 0.80919 g(F)=  0.106E-01 g(S)=  0.434E-03 ort = 0.111E-04 (trialstep = 0.223E+00)
 search vector abs. value=  0.677E-01
 bond charge predicted
       N       E                     dE             d eps       ncg     rms          rms(c)
DAV:   1    -0.113160717687E+04   -0.20934E-04   -0.86067E-01  1992   0.204E+00    0.281E-01
RMM:   2    -0.113161502511E+04   -0.78482E-02   -0.20669E-02  2225   0.301E-01    0.289E+00
RMM:   3    -0.113160362313E+04    0.11402E-01   -0.55639E-03  2213   0.170E-01    0.598E-01
RMM:   4    -0.113160931637E+04   -0.56932E-02   -0.25948E-03  2312   0.116E-01    0.102E+00
RMM:   5    -0.113160890904E+04    0.40732E-03   -0.12229E-03  2164   0.815E-02    0.648E-01
RMM:   6    -0.113160897448E+04   -0.65439E-04   -0.67954E-04  2114   0.625E-02    0.677E-01
RMM:   7    -0.113160843105E+04    0.54344E-03   -0.22017E-04  2182   0.324E-02    0.346E-01
RMM:   8    -0.113160878699E+04   -0.35595E-03   -0.14585E-04  2043   0.268E-02    0.165E-01
RMM:   9    -0.113160909586E+04   -0.30887E-03   -0.17606E-04  2105   0.308E-02    0.395E-01
RMM:  10    -0.113160888102E+04    0.21483E-03   -0.11782E-04  2025   0.257E-02    0.392E-01
RMM:  11    -0.113160875673E+04    0.12430E-03   -0.53182E-05  1872   0.161E-02    0.290E-01
RMM:  12    -0.113160880132E+04   -0.44594E-04   -0.25196E-05  1729   0.112E-02    0.125E-01
RMM:  13    -0.113160893100E+04   -0.12968E-03   -0.24365E-05  1621   0.118E-02    0.584E-02
RMM:  14    -0.113160898463E+04   -0.53633E-04   -0.12947E-05  1499   0.871E-03    0.273E-02
RMM:  15    -0.113160900517E+04   -0.20535E-04   -0.51168E-06  1401   0.580E-03    0.175E-02
RMM:  16    -0.113160901152E+04   -0.63536E-05   -0.22628E-06  1296   0.391E-03    0.172E-02
RMM:  17    -0.113160901731E+04   -0.57873E-05   -0.99885E-07  1178   0.286E-03    0.158E-02
RMM:  18    -0.113160901987E+04   -0.25605E-05   -0.57902E-07  1134   0.204E-03    0.154E-02
RMM:  19    -0.113160902493E+04   -0.50654E-05   -0.38156E-07  1118   0.164E-03    0.101E-02
RMM:  20    -0.113160903044E+04   -0.55094E-05   -0.24545E-07  1049   0.104E-03    0.795E-03
RMM:  21    -0.113160903332E+04   -0.28794E-05   -0.20300E-07  1002   0.103E-03    0.551E-03
RMM:  22    -0.113160903791E+04   -0.45919E-05   -0.15075E-07   977   0.735E-04    0.216E-03
RMM:  23    -0.113160904195E+04   -0.40384E-05   -0.13410E-07   942   0.697E-04    0.275E-03
RMM:  24    -0.113160904430E+04   -0.23479E-05   -0.11774E-07   892   0.693E-04    0.334E-03
RMM:  25    -0.113160904718E+04   -0.28773E-05   -0.10316E-07   872   0.575E-04    0.190E-03
RMM:  26    -0.113160904948E+04   -0.23045E-05   -0.87313E-08   799   0.522E-04    0.882E-04
RMM:  27    -0.113160905252E+04   -0.30347E-05   -0.10401E-07   833   0.476E-04    0.113E-03
RMM:  28    -0.113160905441E+04   -0.18985E-05   -0.89512E-08   843   0.500E-04    0.126E-03
RMM:  29    -0.113160905577E+04   -0.13566E-05   -0.76864E-08   769   0.439E-04    0.664E-04
RMM:  30    -0.113160905760E+04   -0.18255E-05   -0.85266E-08   841   0.443E-04    0.260E-04
RMM:  31    -0.113160905906E+04   -0.14611E-05   -0.84479E-08   825   0.434E-04    0.333E-04
RMM:  32    -0.113160906022E+04   -0.11677E-05   -0.81178E-08   790   0.431E-04    0.354E-04
RMM:  33    -0.113160906099E+04   -0.76865E-06   -0.74573E-08   782   0.418E-04
  20 F= -.11395025E+04 E0= -.11394848E+04  d E =-.204920E-02  mag=    38.4370
 ZBRENT: can't locate minimum, use default step
 trial-energy change:   -0.002049  1 .order   -0.002060   -0.002463   -0.001658
 step:   0.8915(harm=  0.6825)  dis= 0.01399  next Energy= -1139.504755 (dE=-0.433E-02)
 bond charge predicted
       N       E                     dE             d eps       ncg     rms          rms(c)
DAV:   1    -0.113159288242E+04    0.16178E-01   -0.77442E+00  1944   0.612E+00    0.845E-01
RMM:   2    -0.113165972837E+04   -0.66846E-01   -0.18680E-01  2225   0.904E-01    0.731E+00
RMM:   3    -0.113158373880E+04    0.75990E-01   -0.44503E-02  2230   0.474E-01    0.139E+00
RMM:   4    -0.113161986345E+04   -0.36125E-01   -0.21980E-02  2337   0.326E-01    0.314E+00
RMM:   5    -0.113160860678E+04    0.11257E-01   -0.11194E-02  2166   0.251E-01    0.136E+00
RMM:   6    -0.113160949141E+04   -0.88463E-03   -0.43706E-03  2197   0.156E-01    0.129E+00
RMM:   7    -0.113160821954E+04    0.12719E-02   -0.16596E-03  2271   0.910E-02    0.614E-01
RMM:   8    -0.113160981228E+04   -0.15927E-02   -0.12748E-03  2191   0.789E-02    0.870E-01
RMM:   9    -0.113161008476E+04   -0.27248E-03   -0.13942E-03  2142   0.880E-02    0.128E+00
RMM:  10    -0.113160823491E+04    0.18499E-02   -0.72032E-04  2205   0.604E-02    0.867E-01
RMM:  11    -0.113160855795E+04   -0.32304E-03   -0.38673E-04  2151   0.430E-02    0.450E-01
RMM:  12    -0.113160914131E+04   -0.58335E-03   -0.28554E-04  2055   0.396E-02    0.169E-01
RMM:  13    -0.113160955779E+04   -0.41648E-03   -0.21361E-04  1976   0.341E-02    0.220E-01
RMM:  14    -0.113160954053E+04    0.17256E-04   -0.96295E-05  1898   0.232E-02    0.151E-01
RMM:  15    -0.113160954921E+04   -0.86799E-05   -0.31178E-05  1727   0.128E-02    0.645E-02
RMM:  16    -0.113160959749E+04   -0.48276E-04   -0.16729E-05  1521   0.919E-03    0.534E-02
RMM:  17    -0.113160962841E+04   -0.30923E-04   -0.86855E-06  1432   0.723E-03    0.228E-02
RMM:  18    -0.113160965878E+04   -0.30366E-04   -0.53606E-06  1408   0.547E-03    0.300E-02
RMM:  19    -0.113160968567E+04   -0.26895E-04   -0.36977E-06  1361   0.476E-03    0.267E-02
RMM:  20    -0.113160971122E+04   -0.25552E-04   -0.21249E-06  1302   0.346E-03    0.130E-02
RMM:  21    -0.113160973484E+04   -0.23616E-04   -0.13544E-06  1215   0.274E-03    0.115E-02
RMM:  22    -0.113160975325E+04   -0.18413E-04   -0.10807E-06  1190   0.227E-03    0.143E-02
RMM:  23    -0.113160977512E+04   -0.21867E-04   -0.89837E-07  1146   0.205E-03    0.668E-03
RMM:  24    -0.113160980336E+04   -0.28241E-04   -0.88959E-07  1131   0.155E-03    0.806E-03
RMM:  25    -0.113160982490E+04   -0.21546E-04   -0.75609E-07  1115   0.148E-03    0.644E-03
RMM:  26    -0.113160983581E+04   -0.10907E-04   -0.57232E-07  1054   0.133E-03    0.484E-03
RMM:  27    -0.113160985208E+04   -0.16268E-04   -0.60943E-07  1038   0.116E-03    0.273E-03
RMM:  28    -0.113160986853E+04   -0.16447E-04   -0.67970E-07  1067   0.117E-03    0.451E-03
RMM:  29    -0.113160987582E+04   -0.72930E-05   -0.50573E-07  1007   0.109E-03    0.298E-03
RMM:  30    -0.113160988741E+04   -0.11594E-04   -0.58695E-07  1001   0.917E-04    0.194E-03
RMM:  31    -0.113160989622E+04   -0.88019E-05   -0.53653E-07  1016   0.971E-04    0.121E-03
RMM:  32    -0.113160990395E+04   -0.77311E-05   -0.60359E-07  1010   0.876E-04    0.618E-04
RMM:  33    -0.113160990966E+04   -0.57153E-05   -0.52556E-07  1004   0.934E-04    0.576E-04
RMM:  34    -0.113160991300E+04   -0.33337E-05   -0.43251E-07   943   0.807E-04    0.720E-04
RMM:  35    -0.113160991585E+04   -0.28560E-05   -0.38255E-07   945   0.798E-04    0.793E-04
RMM:  36    -0.113160991791E+04   -0.20553E-05   -0.35339E-07   956   0.733E-04    0.439E-04
RMM:  37    -0.113160991855E+04   -0.64404E-06   -0.24685E-07   867   0.692E-04
  21 F= -.11395038E+04 E0= -.11394860E+04  d E =-.333913E-02  mag=    38.4363
 curvature:  -1.66 expect dE=-0.269E-01 dE for cont linesearch -0.295E-03
 ZBRENT: interpolating
 opt :   0.6788  next Energy= -1139.504137 (dE=-0.371E-02)
 bond charge predicted
       N       E                     dE             d eps       ncg     rms          rms(c)
DAV:   1    -0.113160872137E+04    0.11965E-02   -0.78404E-01  2064   0.194E+00    0.268E-01
RMM:   2    -0.113161501243E+04   -0.62911E-02   -0.18830E-02  2216   0.289E-01    0.200E+00
RMM:   3    -0.113160768922E+04    0.73232E-02   -0.41812E-03  2218   0.147E-01    0.273E-01
RMM:   4    -0.113161051687E+04   -0.28277E-02   -0.16991E-03  2336   0.941E-02    0.530E-01
RMM:   5    -0.113161059817E+04   -0.81293E-04   -0.60520E-04  2180   0.570E-02    0.549E-01
RMM:   6    -0.113161025172E+04    0.34645E-03   -0.35482E-04  2151   0.416E-02    0.520E-01
RMM:   7    -0.113161002983E+04    0.22189E-03   -0.17495E-04  2075   0.301E-02    0.155E-01
RMM:   8    -0.113161042015E+04   -0.39032E-03   -0.15116E-04  2046   0.269E-02    0.332E-01
RMM:   9    -0.113161043746E+04   -0.17308E-04   -0.15966E-04  2081   0.298E-02    0.454E-01
RMM:  10    -0.113161020427E+04    0.23319E-03   -0.79009E-05  1990   0.205E-02    0.398E-01
RMM:  11    -0.113161013577E+04    0.68500E-04   -0.38060E-05  1771   0.132E-02    0.218E-01
RMM:  12    -0.113161026999E+04   -0.13422E-03   -0.38691E-05  1764   0.139E-02    0.640E-02
RMM:  13    -0.113161041395E+04   -0.14396E-03   -0.40233E-05  1724   0.150E-02    0.107E-01
RMM:  14    -0.113161039924E+04    0.14713E-04   -0.13066E-05  1499   0.883E-03    0.837E-02
RMM:  15    -0.113161039537E+04    0.38630E-05   -0.41240E-06  1377   0.519E-03    0.489E-02
RMM:  16    -0.113161040779E+04   -0.12415E-04   -0.18942E-06  1298   0.353E-03    0.280E-02
RMM:  17    -0.113161041626E+04   -0.84721E-05   -0.10908E-06  1194   0.267E-03    0.717E-03
RMM:  18    -0.113161042295E+04   -0.66879E-05   -0.77469E-07  1161   0.223E-03    0.966E-03
RMM:  19    -0.113161042507E+04   -0.21163E-05   -0.48979E-07  1119   0.188E-03    0.753E-03
RMM:  20    -0.113161042738E+04   -0.23120E-05   -0.23047E-07  1038   0.126E-03    0.476E-03
RMM:  21    -0.113161042900E+04   -0.16172E-05   -0.15098E-07  1003   0.922E-04    0.464E-03
RMM:  22    -0.113161043027E+04   -0.12726E-05   -0.11382E-07   946   0.824E-04    0.305E-03
RMM:  23    -0.113161043222E+04   -0.19524E-05   -0.84606E-08   867   0.617E-04    0.351E-03
RMM:  24    -0.113161043367E+04   -0.14524E-05   -0.83611E-08   889   0.665E-04    0.385E-03
RMM:  25    -0.113161043459E+04   -0.91360E-06   -0.58320E-08   812   0.526E-04
  22 F= -.11395041E+04 E0= -.11394864E+04  d E =-.371787E-02  mag=    38.4365
 curvature:  -2.07 expect dE=-0.183E-01 dE for cont linesearch -0.918E-08
 trial: gam= 0.79302 g(F)=  0.829E-02 g(S)=  0.513E-03 ort =-0.173E-04 (trialstep = 0.314E+00)
 search vector abs. value=  0.514E-01
 bond charge predicted
       N       E                     dE             d eps       ncg     rms          rms(c)
DAV:   1    -0.113160863354E+04    0.18001E-02   -0.12838E+00  1944   0.252E+00    0.360E-01
RMM:   2    -0.113162281590E+04   -0.14182E-01   -0.31920E-02  2229   0.374E-01    0.396E+00
RMM:   3    -0.113160201396E+04    0.20802E-01   -0.95505E-03  2208   0.220E-01    0.859E-01
RMM:   4    -0.113161136620E+04   -0.93522E-02   -0.43108E-03  2315   0.147E-01    0.132E+00
RMM:   5    -0.113161107291E+04    0.29329E-03   -0.21432E-03  2170   0.109E-01    0.847E-01
RMM:   6    -0.113161118001E+04   -0.10711E-03   -0.11267E-03  2134   0.799E-02    0.889E-01
RMM:   7    -0.113161031637E+04    0.86364E-03   -0.38356E-04  2191   0.428E-02    0.507E-01
RMM:   8    -0.113161074272E+04   -0.42635E-03   -0.23128E-04  2117   0.338E-02    0.181E-01
RMM:   9    -0.113161128369E+04   -0.54097E-03   -0.27206E-04  2112   0.380E-02    0.440E-01
RMM:  10    -0.113161106648E+04    0.21721E-03   -0.18125E-04  2110   0.321E-02    0.476E-01
RMM:  11    -0.113161087529E+04    0.19120E-03   -0.90914E-05  2021   0.209E-02    0.381E-01
RMM:  12    -0.113161086829E+04    0.69914E-05   -0.41043E-05  1854   0.142E-02    0.184E-01
RMM:  13    -0.113161104820E+04   -0.17991E-03   -0.38754E-05  1719   0.146E-02    0.102E-01
RMM:  14    -0.113161112702E+04   -0.78816E-04   -0.20210E-05  1588   0.108E-02    0.558E-02
RMM:  15    -0.113161116142E+04   -0.34398E-04   -0.77452E-06  1452   0.693E-03    0.277E-02
RMM:  16    -0.113161117690E+04   -0.15483E-04   -0.40246E-06  1363   0.491E-03    0.189E-02
RMM:  17    -0.113161118660E+04   -0.97019E-05   -0.21795E-06  1278   0.396E-03    0.211E-02
RMM:  18    -0.113161118905E+04   -0.24440E-05   -0.11034E-06  1188   0.282E-03    0.222E-02
RMM:  19    -0.113161119190E+04   -0.28573E-05   -0.62572E-07  1136   0.224E-03    0.149E-02
RMM:  20    -0.113161119780E+04   -0.58956E-05   -0.32641E-07  1122   0.135E-03    0.852E-03
RMM:  21    -0.113161120151E+04   -0.37113E-05   -0.27936E-07  1057   0.125E-03    0.612E-03
RMM:  22    -0.113161120549E+04   -0.39771E-05   -0.20492E-07  1014   0.101E-03    0.234E-03
RMM:  23    -0.113161120925E+04   -0.37643E-05   -0.14798E-07   980   0.745E-04    0.228E-03
RMM:  24    -0.113161121162E+04   -0.23733E-05   -0.12306E-07   903   0.732E-04    0.360E-03
RMM:  25    -0.113161121424E+04   -0.26201E-05   -0.10659E-07   890   0.622E-04    0.296E-03
RMM:  26    -0.113161121671E+04   -0.24641E-05   -0.93097E-08   827   0.561E-04    0.818E-04
RMM:  27    -0.113161121966E+04   -0.29489E-05   -0.10112E-07   845   0.490E-04    0.137E-03
RMM:  28    -0.113161122171E+04   -0.20523E-05   -0.91299E-08   861   0.492E-04    0.130E-03
RMM:  29    -0.113161122282E+04   -0.11068E-05   -0.69814E-08   763   0.444E-04    0.996E-04
[...]
RMM:  27    -0.113166214324E+04   -0.68857E-05   -0.29991E-07  1011   0.846E-04    0.317E-03
RMM:  28    -0.113166214798E+04   -0.47406E-05   -0.24221E-07   902   0.771E-04    0.192E-03
RMM:  29    -0.113166215637E+04   -0.83874E-05   -0.34759E-07   949   0.719E-04    0.164E-03
RMM:  30    -0.113166216349E+04   -0.71171E-05   -0.34574E-07   982   0.808E-04    0.249E-03
RMM:  31    -0.113166216847E+04   -0.49838E-05   -0.37092E-07   988   0.738E-04    0.210E-03
RMM:  32    -0.113166217264E+04   -0.41667E-05   -0.34177E-07   951   0.748E-04    0.198E-03
RMM:  33    -0.113166217599E+04   -0.33531E-05   -0.33143E-07   936   0.702E-04    0.714E-04
RMM:  34    -0.113166217877E+04   -0.27745E-05   -0.33912E-07   951   0.727E-04    0.102E-03
RMM:  35    -0.113166217992E+04   -0.11500E-05   -0.25954E-07   915   0.673E-04    0.156E-03
RMM:  36    -0.113166218056E+04   -0.64169E-06   -0.19495E-07   853   0.588E-04
 304 F= -.11396054E+04 E0= -.11395879E+04  d E =-.510412E-02  mag=    38.4502
 curvature: -35.73 expect dE=-0.459E+00 dE for cont linesearch -0.433E-03
 ZBRENT: increasing intervall
 opt :   0.4760  next Energy= -1139.605608 (dE=-0.529E-02)
 bond charge predicted
       N       E                     dE             d eps       ncg     rms          rms(c)
DAV:   1    -0.113145625532E+04    0.20592E+00   -0.77426E+01  1944   0.197E+01    0.250E+00
RMM:   2    -0.113165880043E+04   -0.20255E+00   -0.16972E+00  2219   0.282E+00    0.460E+00
RMM:   3    -0.113176031386E+04   -0.10151E+00   -0.28989E-01  2177   0.131E+00    0.677E+00
RMM:   4    -0.113173176370E+04    0.28550E-01   -0.13333E-01  2447   0.756E-01    0.581E+00
RMM:   5    -0.113165876826E+04    0.72995E-01   -0.44121E-02  2169   0.464E-01    0.264E+00
RMM:   6    -0.113166074972E+04   -0.19815E-02   -0.22732E-02  2260   0.316E-01    0.253E+00
RMM:   7    -0.113165982194E+04    0.92778E-03   -0.96062E-03  2251   0.190E-01    0.189E+00
RMM:   8    -0.113165793920E+04    0.18827E-02   -0.80668E-03  2156   0.195E-01    0.107E+00
RMM:   9    -0.113165926263E+04   -0.13234E-02   -0.53470E-03  2252   0.154E-01    0.938E-01
RMM:  10    -0.113166068188E+04   -0.14193E-02   -0.41870E-03  2261   0.136E-01    0.125E+00
RMM:  11    -0.113165995124E+04    0.73065E-03   -0.38123E-03  2190   0.134E-01    0.125E+00
RMM:  12    -0.113165828599E+04    0.16652E-02   -0.17093E-03  2243   0.908E-02    0.455E-01
RMM:  13    -0.113165996940E+04   -0.16834E-02   -0.77616E-04  2165   0.638E-02    0.721E-01
RMM:  14    -0.113165979741E+04    0.17199E-03   -0.64128E-04  2055   0.619E-02    0.748E-01
RMM:  15    -0.113165918068E+04    0.61673E-03   -0.21550E-04  2075   0.311E-02    0.199E-01
RMM:  16    -0.113165976238E+04   -0.58170E-03   -0.15847E-04  1941   0.288E-02    0.234E-01
RMM:  17    -0.113165996479E+04   -0.20241E-03   -0.11003E-04  1904   0.254E-02    0.363E-01
RMM:  18    -0.113165982384E+04    0.14095E-03   -0.48345E-05  1791   0.160E-02    0.239E-01
RMM:  19    -0.113165989318E+04   -0.69338E-04   -0.17411E-05  1590   0.896E-03    0.973E-02
RMM:  20    -0.113166003431E+04   -0.14113E-03   -0.19586E-05  1641   0.101E-02    0.676E-02
RMM:  21    -0.113166012085E+04   -0.86544E-04   -0.14732E-05  1624   0.918E-03    0.833E-02
RMM:  22    -0.113166013877E+04   -0.17912E-04   -0.50353E-06  1415   0.539E-03    0.781E-02
RMM:  23    -0.113166014569E+04   -0.69210E-05   -0.17658E-06  1268   0.337E-03    0.523E-02
RMM:  24    -0.113166017426E+04   -0.28573E-04   -0.13769E-06  1232   0.275E-03    0.386E-02
RMM:  25    -0.113166020819E+04   -0.33932E-04   -0.13888E-06  1223   0.231E-03    0.140E-02
RMM:  26    -0.113166023303E+04   -0.24837E-04   -0.13660E-06  1213   0.263E-03    0.727E-03
RMM:  27    -0.113166025256E+04   -0.19533E-04   -0.91686E-07  1145   0.208E-03    0.114E-02
RMM:  28    -0.113166027094E+04   -0.18379E-04   -0.73291E-07  1113   0.163E-03    0.510E-03
RMM:  29    -0.113166029492E+04   -0.23983E-04   -0.80651E-07  1095   0.129E-03    0.527E-03
RMM:  30    -0.113166032060E+04   -0.25679E-04   -0.10473E-06  1120   0.126E-03    0.454E-03
RMM:  31    -0.113166034373E+04   -0.23124E-04   -0.12276E-06  1128   0.128E-03    0.521E-03
RMM:  32    -0.113166036279E+04   -0.19063E-04   -0.13036E-06  1149   0.132E-03    0.582E-03
RMM:  33    -0.113166037443E+04   -0.11639E-04   -0.10726E-06  1081   0.125E-03    0.144E-03
RMM:  34    -0.113166038517E+04   -0.10746E-04   -0.10264E-06  1091   0.121E-03    0.295E-03
RMM:  35    -0.113166039218E+04   -0.70100E-05   -0.97848E-07  1091   0.119E-03    0.220E-03
RMM:  36    -0.113166039566E+04   -0.34802E-05   -0.71323E-07  1014   0.105E-03    0.410E-04
RMM:  37    -0.113166039740E+04   -0.17310E-05   -0.49494E-07   928   0.928E-04    0.414E-04
RMM:  38    -0.113166039818E+04   -0.78501E-06   -0.32209E-07   868   0.759E-04
 305 F= -.11396055E+04 E0= -.11395879E+04  d E =-.518837E-02  mag=    38.4522
 curvature: -15.14 expect dE=-0.433E+00 dE for cont linesearch -0.135E-03
 ZBRENT: bracketing found
 ZBRENT: interpolating
 opt :   0.3757  next Energy= -1139.605915 (dE=-0.559E-02)
 bond charge predicted
       N       E                     dE             d eps       ncg     rms          rms(c)
DAV:   1    -0.113161891541E+04    0.41482E-01   -0.16498E+01  1944   0.910E+00    0.113E+00
RMM:   2    -0.113166305692E+04   -0.44142E-01   -0.34992E-01  2166   0.129E+00    0.302E+00
RMM:   3    -0.113167466498E+04   -0.11608E-01   -0.56244E-02  2179   0.578E-01    0.342E+00
RMM:   4    -0.113166231299E+04    0.12352E-01   -0.25988E-02  2438   0.352E-01    0.199E+00
RMM:   5    -0.113165998535E+04    0.23276E-02   -0.52405E-03  2229   0.151E-01    0.156E+00
RMM:   6    -0.113166091136E+04   -0.92601E-03   -0.41806E-03  2219   0.139E-01    0.117E+00
RMM:   7    -0.113166065324E+04    0.25812E-03   -0.21205E-03  2218   0.103E-01    0.504E-01
RMM:   8    -0.113166148480E+04   -0.83157E-03   -0.13897E-03  2215   0.812E-02    0.580E-01
RMM:   9    -0.113166170245E+04   -0.21765E-03   -0.13441E-03  2219   0.818E-02    0.635E-01
RMM:  10    -0.113166126879E+04    0.43366E-03   -0.82963E-04  2257   0.646E-02    0.359E-01
RMM:  11    -0.113166161344E+04   -0.34465E-03   -0.61893E-04  2198   0.535E-02    0.314E-01
RMM:  12    -0.113166165646E+04   -0.43026E-04   -0.29133E-04  2117   0.412E-02    0.414E-01
RMM:  13    -0.113166148467E+04    0.17179E-03   -0.13219E-04  1939   0.276E-02    0.301E-01
RMM:  14    -0.113166145533E+04    0.29341E-04   -0.47905E-05  1785   0.149E-02    0.107E-01
RMM:  15    -0.113166159301E+04   -0.13768E-03   -0.32791E-05  1718   0.134E-02    0.105E-01
RMM:  16    -0.113166163914E+04   -0.46125E-04   -0.24071E-05  1674   0.121E-02    0.146E-01
RMM:  17    -0.113166161233E+04    0.26802E-04   -0.97055E-06  1484   0.770E-03    0.108E-01
RMM:  18    -0.113166162361E+04   -0.11277E-04   -0.38903E-06  1356   0.460E-03    0.222E-02
RMM:  19    -0.113166165846E+04   -0.34849E-04   -0.48740E-06  1401   0.510E-03    0.434E-02
RMM:  20    -0.113166166458E+04   -0.61171E-05   -0.28624E-06  1314   0.440E-03    0.565E-02
RMM:  21    -0.113166166176E+04    0.28179E-05   -0.10817E-06  1178   0.277E-03    0.329E-02
RMM:  22    -0.113166166758E+04   -0.58181E-05   -0.51317E-07  1122   0.183E-03    0.118E-02
RMM:  23    -0.113166167359E+04   -0.60165E-05   -0.51847E-07  1082   0.168E-03    0.146E-02
RMM:  24    -0.113166167796E+04   -0.43680E-05   -0.36059E-07  1075   0.147E-03    0.187E-02
RMM:  25    -0.113166168064E+04   -0.26816E-05   -0.23267E-07  1070   0.117E-03    0.155E-02
RMM:  26    -0.113166168234E+04   -0.16965E-05   -0.14159E-07   987   0.929E-04    0.105E-02
RMM:  27    -0.113166168536E+04   -0.30222E-05   -0.10244E-07   855   0.649E-04    0.336E-03
RMM:  28    -0.113166168877E+04   -0.34060E-05   -0.11447E-07   907   0.684E-04    0.400E-03
RMM:  29    -0.113166169237E+04   -0.35989E-05   -0.13272E-07   978   0.658E-04    0.451E-03
RMM:  30    -0.113166169455E+04   -0.21810E-05   -0.96983E-08   908   0.548E-04    0.388E-03
RMM:  31    -0.113166169688E+04   -0.23362E-05   -0.10271E-07   845   0.467E-04    0.350E-03
RMM:  32    -0.113166169947E+04   -0.25870E-05   -0.12724E-07   913   0.509E-04    0.177E-03
RMM:  33    -0.113166170095E+04   -0.14776E-05   -0.11948E-07   875   0.501E-04    0.829E-04
RMM:  34    -0.113166170193E+04   -0.98588E-06   -0.10789E-07   838   0.488E-04
 306 F= -.11396059E+04 E0= -.11395884E+04  d E =-.562067E-02  mag=    38.4513
 curvature: -45.68 expect dE=-0.820E+00 dE for cont linesearch -0.360E-06
 trial: gam= 0.48716 g(F)=  0.175E-01 g(S)=  0.447E-03 ort = 0.241E-03 (trialstep = 0.195E+00)
 search vector abs. value=  0.177E+01
 bond charge predicted
       N       E                     dE             d eps       ncg     rms          rms(c)
DAV:   1    -0.113162377523E+04    0.37926E-01   -0.14928E+01  1944   0.864E+00    0.110E+00
RMM:   2    -0.113166420637E+04   -0.40431E-01   -0.32141E-01  2179   0.123E+00    0.273E+00
RMM:   3    -0.113168178893E+04   -0.17583E-01   -0.52890E-02  2173   0.559E-01    0.516E+00
RMM:   4    -0.113168326568E+04   -0.14768E-02   -0.35964E-02  2411   0.390E-01    0.473E+00
RMM:   5    -0.113165492936E+04    0.28336E-01   -0.19585E-02  2159   0.323E-01    0.120E+00
RMM:   6    -0.113165996424E+04   -0.50349E-02   -0.58088E-03  2200   0.175E-01    0.695E-01
RMM:   7    -0.113166185035E+04   -0.18861E-02   -0.20518E-03  2321   0.907E-02    0.538E-01
RMM:   8    -0.113166242419E+04   -0.57384E-03   -0.13696E-03  2219   0.851E-02    0.602E-01
RMM:   9    -0.113166247576E+04   -0.51568E-04   -0.11839E-03  2235   0.709E-02    0.456E-01
RMM:  10    -0.113166261630E+04   -0.14054E-03   -0.85071E-04  2201   0.651E-02    0.644E-01
RMM:  11    -0.113166257331E+04    0.42988E-04   -0.66869E-04  2128   0.572E-02    0.638E-01
RMM:  12    -0.113166217029E+04    0.40302E-03   -0.30754E-04  2081   0.386E-02    0.323E-01
RMM:  13    -0.113166234006E+04   -0.16977E-03   -0.10943E-04  1968   0.241E-02    0.201E-01
RMM:  14    -0.113166245930E+04   -0.11924E-03   -0.80917E-05  1882   0.228E-02    0.214E-01
RMM:  15    -0.113166243888E+04    0.20413E-04   -0.32211E-05  1771   0.137E-02    0.109E-01
RMM:  16    -0.113166248350E+04   -0.44613E-04   -0.15248E-05  1516   0.903E-03    0.582E-02
RMM:  17    -0.113166252618E+04   -0.42681E-04   -0.12044E-05  1512   0.872E-03    0.943E-02
RMM:  18    -0.113166252451E+04    0.16628E-05   -0.56083E-06  1416   0.606E-03    0.628E-02
RMM:  19    -0.113166253921E+04   -0.14693E-04   -0.22284E-06  1273   0.361E-03    0.141E-02
RMM:  20    -0.113166255658E+04   -0.17374E-04   -0.21608E-06  1265   0.349E-03    0.291E-02
RMM:  21    -0.113166256452E+04   -0.79421E-05   -0.11869E-06  1179   0.271E-03    0.294E-02
RMM:  22    -0.113166256901E+04   -0.44880E-05   -0.59137E-07  1134   0.193E-03    0.209E-02
RMM:  23    -0.113166257473E+04   -0.57235E-05   -0.38936E-07  1081   0.147E-03    0.104E-02
RMM:  24    -0.113166258259E+04   -0.78544E-05   -0.33983E-07  1048   0.123E-03    0.414E-03
RMM:  25    -0.113166259053E+04   -0.79401E-05   -0.31481E-07  1067   0.111E-03    0.500E-03
RMM:  26    -0.113166259560E+04   -0.50670E-05   -0.25184E-07  1044   0.984E-04    0.472E-03
RMM:  27    -0.113166259888E+04   -0.32831E-05   -0.18130E-07   941   0.780E-04    0.284E-03
RMM:  28    -0.113166260451E+04   -0.56305E-05   -0.19701E-07   912   0.640E-04    0.144E-03
RMM:  29    -0.113166261085E+04   -0.63419E-05   -0.23626E-07   930   0.664E-04    0.214E-03
RMM:  30    -0.113166261615E+04   -0.52960E-05   -0.27207E-07   963   0.667E-04    0.168E-03
RMM:  31    -0.113166261997E+04   -0.38223E-05   -0.26577E-07   949   0.672E-04    0.134E-03
RMM:  32    -0.113166262323E+04   -0.32554E-05   -0.28422E-07   940   0.653E-04    0.763E-04
RMM:  33    -0.113166262560E+04   -0.23729E-05   -0.26778E-07   924   0.663E-04    0.305E-04
RMM:  34    -0.113166262717E+04   -0.15674E-05   -0.24837E-07   916   0.626E-04    0.886E-04
RMM:  35    -0.113166262788E+04   -0.70979E-06   -0.19101E-07   863   0.595E-04
 307 F= -.11396084E+04 E0= -.11395908E+04  d E =-.242950E-02  mag=    38.4528
 trial-energy change:   -0.002430  1 .order   -0.002471   -0.003526   -0.001416
 step:   0.3626(harm=  0.3259)  dis= 0.01542  next Energy= -1139.608952 (dE=-0.301E-02)
 bond charge predicted
       N       E                     dE             d eps       ncg     rms          rms(c)
DAV:   1    -0.113163307083E+04    0.29556E-01   -0.11010E+01  1944   0.742E+00    0.944E-01
RMM:   2    -0.113166288666E+04   -0.29816E-01   -0.23674E-01  2177   0.106E+00    0.244E+00
RMM:   3    -0.113167500792E+04   -0.12121E-01   -0.38604E-02  2172   0.479E-01    0.458E+00
RMM:   4    -0.113167533001E+04   -0.32209E-03   -0.27054E-02  2397   0.342E-01    0.419E+00
RMM:   5    -0.113165491876E+04    0.20411E-01   -0.14596E-02  2151   0.281E-01    0.962E-01
RMM:   6    -0.113165973025E+04   -0.48115E-02   -0.44819E-03  2194   0.155E-01    0.537E-01
RMM:   7    -0.113166119589E+04   -0.14656E-02   -0.15053E-03  2313   0.792E-02    0.479E-01
RMM:   8    -0.113166149434E+04   -0.29845E-03   -0.99207E-04  2232   0.720E-02    0.490E-01
RMM:   9    -0.113166161939E+04   -0.12505E-03   -0.87943E-04  2230   0.608E-02    0.409E-01
RMM:  10    -0.113166169089E+04   -0.71498E-04   -0.63451E-04  2194   0.571E-02    0.576E-01
RMM:  11    -0.113166157201E+04    0.11888E-03   -0.44933E-04  2117   0.470E-02    0.524E-01
RMM:  12    -0.113166135600E+04    0.21601E-03   -0.20886E-04  2016   0.319E-02    0.272E-01
RMM:  13    -0.113166150095E+04   -0.14495E-03   -0.87749E-05  1902   0.219E-02    0.203E-01
RMM:  14    -0.113166154804E+04   -0.47093E-04   -0.54508E-05  1830   0.186E-02    0.176E-01
RMM:  15    -0.113166155479E+04   -0.67490E-05   -0.22064E-05  1704   0.112E-02    0.704E-02
RMM:  16    -0.113166160321E+04   -0.48415E-04   -0.12959E-05  1495   0.848E-03    0.646E-02
RMM:  17    -0.113166162602E+04   -0.22819E-04   -0.86050E-06  1474   0.748E-03    0.827E-02
RMM:  18    -0.113166162420E+04    0.18285E-05   -0.35062E-06  1344   0.477E-03    0.454E-02
RMM:  19    -0.113166163855E+04   -0.14353E-04   -0.17137E-06  1243   0.322E-03    0.137E-02
RMM:  20    -0.113166165173E+04   -0.13177E-04   -0.15235E-06  1224   0.298E-03    0.279E-02
RMM:  21    -0.113166165748E+04   -0.57503E-05   -0.86665E-07  1160   0.233E-03    0.245E-02
RMM:  22    -0.113166166112E+04   -0.36432E-05   -0.45085E-07  1108   0.169E-03    0.175E-02
RMM:  23    -0.113166166625E+04   -0.51352E-05   -0.30525E-07  1055   0.127E-03    0.799E-03
RMM:  24    -0.113166167306E+04   -0.68017E-05   -0.26933E-07  1019   0.106E-03    0.322E-03
RMM:  25    -0.113166167884E+04   -0.57848E-05   -0.24080E-07  1046   0.969E-04    0.429E-03
RMM:  26    -0.113166168245E+04   -0.36055E-05   -0.18955E-07   997   0.853E-04    0.432E-03
RMM:  27    -0.113166168555E+04   -0.31040E-05   -0.14626E-07   897   0.688E-04    0.254E-03
RMM:  28    -0.113166169017E+04   -0.46145E-05   -0.15949E-07   882   0.584E-04    0.106E-03
RMM:  29    -0.113166169547E+04   -0.53012E-05   -0.20232E-07   931   0.611E-04    0.197E-03
RMM:  30    -0.113166169970E+04   -0.42366E-05   -0.22354E-07   953   0.623E-04    0.167E-03
RMM:  31    -0.113166170251E+04   -0.28102E-05   -0.21022E-07   915   0.608E-04    0.134E-03
RMM:  32    -0.113166170509E+04   -0.25778E-05   -0.22285E-07   923   0.592E-04    0.611E-04
RMM:  33    -0.113166170702E+04   -0.19244E-05   -0.21533E-07   912   0.606E-04    0.342E-04
RMM:  34    -0.113166170813E+04   -0.11119E-05   -0.19277E-07   873   0.570E-04    0.967E-04
RMM:  35    -0.113166170863E+04   -0.50511E-06   -0.14658E-07   827   0.534E-04
 308 F= -.11396088E+04 E0= -.11395912E+04  d E =-.281666E-02  mag=    38.4542
 curvature: -14.70 expect dE=-0.260E+00 dE for cont linesearch -0.430E-04
 trial: gam= 1.09322 g(F)=  0.176E-01 g(S)=  0.134E-03 ort =-0.227E-02 (trialstep = 0.190E+00)
 search vector abs. value=  0.213E+01
 bond charge predicted
       N       E                     dE             d eps       ncg     rms          rms(c)
DAV:   1    -0.113161748899E+04    0.44219E-01   -0.16986E+01  1944   0.921E+00    0.120E+00
RMM:   2    -0.113166408852E+04   -0.46600E-01   -0.36863E-01  2190   0.132E+00    0.289E+00
RMM:   3    -0.113168568846E+04   -0.21600E-01   -0.61665E-02  2177   0.600E-01    0.559E+00
RMM:   4    -0.113168737965E+04   -0.16912E-02   -0.42193E-02  2410   0.422E-01    0.503E+00
RMM:   5    -0.113165407983E+04    0.33300E-01   -0.23450E-02  2155   0.353E-01    0.136E+00
RMM:   6    -0.113165872408E+04   -0.46442E-02   -0.66252E-03  2205   0.184E-01    0.819E-01
RMM:   7    -0.113166078099E+04   -0.20569E-02   -0.23945E-03  2295   0.995E-02    0.543E-01
RMM:   8    -0.113166167467E+04   -0.89368E-03   -0.16136E-03  2224   0.926E-02    0.662E-01
RMM:   9    -0.113166166131E+04    0.13363E-04   -0.13680E-03  2245   0.767E-02    0.494E-01
RMM:  10    -0.113166183746E+04   -0.17615E-03   -0.98192E-04  2211   0.689E-02    0.662E-01
RMM:  11    -0.113166184596E+04   -0.85034E-05   -0.85797E-04  2122   0.647E-02    0.715E-01
RMM:  12    -0.113166129241E+04    0.55355E-03   -0.35683E-04  2127   0.421E-02    0.345E-01
RMM:  13    -0.113166151346E+04   -0.22105E-03   -0.12104E-04  2003   0.252E-02    0.206E-01
RMM:  14    -0.113166167968E+04   -0.16621E-03   -0.97484E-05  1907   0.251E-02    0.254E-01
RMM:  15    -0.113166162536E+04    0.54319E-04   -0.37353E-05  1796   0.145E-02    0.117E-01
RMM:  16    -0.113166168117E+04   -0.55816E-04   -0.16942E-05  1538   0.931E-03    0.620E-02
RMM:  17    -0.113166173331E+04   -0.52135E-04   -0.13447E-05  1538   0.925E-03    0.966E-02
RMM:  18    -0.113166173335E+04   -0.40069E-07   -0.63546E-06  1430   0.637E-03
 309 F= -.11396106E+04 E0= -.11395930E+04  d E =-.179845E-02  mag=    38.4544
 trial-energy change:   -0.001798  1 .order   -0.001885   -0.002891   -0.000878
 step:   0.3462(harm=  0.2730)  dis= 0.01654  next Energy= -1139.610869 (dE=-0.211E-02)
 bond charge predicted
       N       E                     dE             d eps       ncg     rms          rms(c)
DAV:   1    -0.113163056776E+04    0.31166E-01   -0.11452E+01  1944   0.756E+00    0.981E-01
RMM:   2    -0.113166123226E+04   -0.30665E-01   -0.24782E-01  2186   0.108E+00    0.239E+00
RMM:   3    -0.113167760273E+04   -0.16370E-01   -0.41156E-02  2178   0.491E-01    0.496E+00
RMM:   4    -0.113167554242E+04    0.20603E-02   -0.29941E-02  2386   0.360E-01    0.438E+00
RMM:   5    -0.113165350254E+04    0.22040E-01   -0.16784E-02  2148   0.301E-01    0.102E+00
RMM:   6    -0.113165842735E+04   -0.49248E-02   -0.49756E-03  2193   0.163E-01    0.568E-01
RMM:   7    -0.113165990719E+04   -0.14798E-02   -0.16559E-03  2295   0.843E-02    0.470E-01
RMM:   8    -0.113166026858E+04   -0.36139E-03   -0.10484E-03  2227   0.742E-02    0.504E-01
RMM:   9    -0.113166038379E+04   -0.11521E-03   -0.94169E-04  2240   0.629E-02    0.418E-01
RMM:  10    -0.113166051994E+04   -0.13615E-03   -0.68361E-04  2198   0.580E-02    0.584E-01
RMM:  11    -0.113166033626E+04    0.18368E-03   -0.52330E-04  2110   0.513E-02    0.587E-01
RMM:  12    -0.113166005815E+04    0.27811E-03   -0.19860E-04  2123   0.312E-02    0.261E-01
RMM:  13    -0.113166028026E+04   -0.22212E-03   -0.97133E-05  1907   0.232E-02    0.190E-01
RMM:  14    -0.113166036738E+04   -0.87116E-04   -0.61891E-05  1854   0.199E-02    0.206E-01
RMM:  15    -0.113166035060E+04    0.16783E-04   -0.26358E-05  1732   0.122E-02    0.911E-02
RMM:  16    -0.113166039955E+04   -0.48957E-04   -0.11930E-05  1483   0.788E-03    0.497E-02
RMM:  17    -0.113166044073E+04   -0.41173E-04   -0.86528E-06  1482   0.744E-03    0.732E-02
RMM:  18    -0.113166045003E+04   -0.93045E-05   -0.41687E-06  1369   0.511E-03    0.502E-02
RMM:  19    -0.113166046286E+04   -0.12826E-04   -0.18373E-06  1266   0.345E-03    0.159E-02
RMM:  20    -0.113166048178E+04   -0.18923E-04   -0.13199E-06  1208   0.265E-03    0.184E-02
RMM:  21    -0.113166049393E+04   -0.12152E-04   -0.95571E-07  1173   0.228E-03    0.231E-02
