       N       E                     dE             d eps       ncg     rms          rms(c)
DAV:   1     0.815071979931E+04    0.81507E+04   -0.31941E+05  1956   0.135E+03
DAV:   2     0.820393968310E+03   -0.73303E+04   -0.66064E+04  2244   0.414E+02
DAV:   3    -0.114519738436E+04   -0.19656E+04   -0.18619E+04  3252   0.212E+02
DAV:   4    -0.130432807413E+04   -0.15913E+03   -0.14819E+03  3096   0.690E+01
DAV:   5    -0.131256466630E+04   -0.82366E+01   -0.75645E+01  3240   0.151E+01    0.152E+02
RMM:   6    -0.176252289012E+04   -0.44996E+03   -0.31558E+03  2502   0.133E+02    0.490E+02
RMM:   7    -0.154278672611E+04    0.21974E+03   -0.23342E+02  1959   0.456E+01    0.298E+02
RMM:   8    -0.113548845936E+04    0.40730E+03   -0.49858E+02  2129   0.451E+01    0.849E+01
RMM:   9    -0.132776238623E+04   -0.19227E+03   -0.17044E+02  2129   0.279E+01    0.177E+02
RMM:  10    -0.129050247558E+04    0.37260E+02   -0.49329E+01  2076   0.168E+01    0.145E+02
RMM:  11    -0.119136452466E+04    0.99138E+02   -0.72874E+01  2017   0.183E+01    0.122E+02
RMM:  12    -0.122729290786E+04   -0.35928E+02   -0.52638E+01  2101   0.154E+01    0.126E+02
RMM:  13    -0.114496606023E+04    0.82327E+02   -0.46793E+01  2049   0.152E+01    0.958E+01
RMM:  14    -0.112264633033E+04    0.22320E+02   -0.38601E+01  2106   0.121E+01    0.867E+01
RMM:  15    -0.113185577801E+04   -0.92094E+01   -0.23980E+01  2085   0.101E+01    0.900E+01
RMM:  16    -0.111858021405E+04    0.13276E+02   -0.17581E+01  2066   0.913E+00    0.761E+01
RMM:  17    -0.110555156670E+04    0.13029E+02   -0.85736E+00  2097   0.627E+00    0.545E+01
RMM:  18    -0.110688967524E+04   -0.13381E+01   -0.74243E+00  2099   0.571E+00    0.585E+01
RMM:  19    -0.110322451692E+04    0.36652E+01   -0.49925E+00  2110   0.458E+00    0.512E+01
RMM:  20    -0.110137596323E+04    0.18486E+01   -0.19518E+00  2078   0.312E+00    0.369E+01
RMM:  21    -0.110264884361E+04   -0.12729E+01   -0.11624E+00  2069   0.229E+00    0.368E+01
RMM:  22    -0.110354732400E+04   -0.89848E+00   -0.10487E+00  2031   0.205E+00    0.318E+01
RMM:  23    -0.110387535918E+04   -0.32804E+00   -0.77958E-01  2117   0.184E+00    0.289E+01
RMM:  24    -0.110657737340E+04   -0.27020E+01   -0.85727E-01  2058   0.183E+00    0.303E+01
RMM:  25    -0.110805431559E+04   -0.14769E+01   -0.89926E-01  2060   0.200E+00    0.283E+01
RMM:  26    -0.111032584865E+04   -0.22715E+01   -0.95640E-01  2090   0.201E+00    0.290E+01
RMM:  27    -0.111190277817E+04   -0.15769E+01   -0.66907E-01  2074   0.163E+00    0.264E+01
RMM:  28    -0.111355539919E+04   -0.16526E+01   -0.73268E-01  2152   0.170E+00    0.315E+01
RMM:  29    -0.111425655882E+04   -0.70116E+00   -0.36232E-01  2065   0.122E+00    0.286E+01
RMM:  30    -0.111502727108E+04   -0.77071E+00   -0.32931E-01  2162   0.106E+00    0.300E+01
RMM:  31    -0.111558773362E+04   -0.56046E+00   -0.26132E-01  2014   0.102E+00    0.259E+01
RMM:  32    -0.111754238064E+04   -0.19546E+01   -0.59752E-01  2081   0.148E+00    0.286E+01
RMM:  33    -0.111885304811E+04   -0.13107E+01   -0.12457E+00  2087   0.221E+00    0.297E+01
RMM:  34    -0.111959638358E+04   -0.74334E+00   -0.88164E-01  2158   0.193E+00    0.274E+01
RMM:  35    -0.112118862578E+04   -0.15922E+01   -0.12807E+00  2047   0.218E+00    0.258E+01
RMM:  36    -0.112143232109E+04   -0.24370E+00   -0.41224E-01  2150   0.121E+00    0.272E+01
RMM:  37    -0.112178754370E+04   -0.35522E+00   -0.18995E-01  2140   0.839E-01    0.280E+01
RMM:  38    -0.112231180103E+04   -0.52426E+00   -0.18626E-01  2045   0.842E-01    0.276E+01
RMM:  39    -0.112228808037E+04    0.23721E-01   -0.73284E-02  2217   0.474E-01    0.266E+01
RMM:  40    -0.112241981074E+04   -0.13173E+00   -0.18932E-01  2006   0.810E-01    0.237E+01
RMM:  41    -0.112280465807E+04   -0.38485E+00   -0.24343E-01  2067   0.100E+00    0.203E+01
RMM:  42    -0.112310965176E+04   -0.30499E+00   -0.97884E-02  2080   0.664E-01    0.198E+01
RMM:  43    -0.112340970441E+04   -0.30005E+00   -0.14530E-01  1994   0.703E-01    0.207E+01
RMM:  44    -0.112345666974E+04   -0.46965E-01   -0.31537E-02  2214   0.311E-01    0.210E+01
RMM:  45    -0.112342222893E+04    0.34441E-01   -0.47895E-02  2017   0.386E-01    0.198E+01
RMM:  46    -0.112350354387E+04   -0.81315E-01   -0.22226E-02  2157   0.275E-01    0.193E+01
RMM:  47    -0.112366832090E+04   -0.16478E+00   -0.17033E-01  1963   0.620E-01    0.170E+01
RMM:  48    -0.112390961507E+04   -0.24129E+00   -0.16637E-01  2081   0.701E-01    0.143E+01
RMM:  49    -0.112448589135E+04   -0.57628E+00   -0.19030E-01  2146   0.749E-01    0.130E+01
RMM:  50    -0.112504671973E+04   -0.56083E+00   -0.16613E-01  2250   0.658E-01    0.124E+01
RMM:  51    -0.112554333493E+04   -0.49662E+00   -0.11830E+00  2027   0.189E+00    0.155E+01
RMM:  52    -0.112608750781E+04   -0.54417E+00   -0.24637E-01  2124   0.919E-01    0.155E+01
RMM:  53    -0.112655563054E+04   -0.46812E+00   -0.14415E-01  2172   0.690E-01    0.150E+01
RMM:  54    -0.112743916088E+04   -0.88353E+00   -0.26566E-01  2059   0.922E-01    0.142E+01
RMM:  55    -0.112757334863E+04   -0.13419E+00   -0.14193E-01  2215   0.670E-01    0.133E+01
RMM:  56    -0.112865959611E+04   -0.10862E+01   -0.27362E-01  2055   0.882E-01    0.154E+01
RMM:  57    -0.112883179178E+04   -0.17220E+00   -0.21163E-01  2172   0.828E-01    0.124E+01
RMM:  58    -0.112908438537E+04   -0.25259E+00   -0.14916E-01  2141   0.591E-01    0.118E+01
RMM:  59    -0.112912482774E+04   -0.40442E-01   -0.56249E-02  2176   0.409E-01    0.881E+00
RMM:  60    -0.112922442736E+04   -0.99600E-01   -0.32088E-02  2079   0.351E-01    0.841E+00
RMM:  61    -0.112952015536E+04   -0.29573E+00   -0.14890E-01  2002   0.746E-01    0.156E+01
RMM:  62    -0.112935034444E+04    0.16981E+00   -0.69171E-02  2118   0.573E-01    0.119E+01
RMM:  63    -0.112931201839E+04    0.38326E-01   -0.33321E-02  2122   0.376E-01    0.732E+00
RMM:  64    -0.112939832408E+04   -0.86306E-01   -0.35297E-02  2075   0.374E-01    0.757E+00
RMM:  65    -0.112939863831E+04   -0.31422E-03   -0.33525E-02  2176   0.363E-01    0.853E+00
RMM:  66    -0.112948480369E+04   -0.86165E-01   -0.89592E-02  2028   0.622E-01    0.486E+00
RMM:  67    -0.112960833948E+04   -0.12354E+00   -0.45855E-02  2179   0.449E-01    0.548E+00
RMM:  68    -0.112969112995E+04   -0.82790E-01   -0.19593E-02  2203   0.267E-01    0.445E+00
RMM:  69    -0.112978775731E+04   -0.96627E-01   -0.16647E-02  2196   0.215E-01    0.306E+00
RMM:  70    -0.112995173424E+04   -0.16398E+00   -0.19878E-02  2163   0.234E-01    0.237E+00
RMM:  71    -0.113003480444E+04   -0.83070E-01   -0.22978E-02  2186   0.289E-01    0.253E+00
RMM:  72    -0.113011520249E+04   -0.80398E-01   -0.12997E-02  2248   0.202E-01    0.248E+00
RMM:  73    -0.113024398746E+04   -0.12878E+00   -0.10441E-02  2161   0.156E-01    0.166E+00
RMM:  74    -0.113043969467E+04   -0.19571E+00   -0.14882E-02  2221   0.168E-01    0.111E+00
RMM:  75    -0.113058232121E+04   -0.14263E+00   -0.11997E-02  2357   0.142E-01    0.100E+00
RMM:  76    -0.113074056375E+04   -0.15824E+00   -0.14022E-02  2175   0.156E-01    0.106E+00
RMM:  77    -0.113077049883E+04   -0.29935E-01   -0.32755E-03  2376   0.883E-02    0.857E-01
RMM:  78    -0.113085437396E+04   -0.83875E-01   -0.43393E-03  2207   0.804E-02    0.875E-01
RMM:  79    -0.113097815124E+04   -0.12378E+00   -0.80385E-03  2343   0.101E-01    0.740E-01
RMM:  80    -0.113105129567E+04   -0.73144E-01   -0.56087E-03  2463   0.775E-02    0.466E-01
RMM:  81    -0.113109770971E+04   -0.46414E-01   -0.36399E-03  2369   0.668E-02    0.341E-01
RMM:  82    -0.113112241679E+04   -0.24707E-01   -0.19111E-03  2451   0.461E-02    0.226E-01
RMM:  83    -0.113114124317E+04   -0.18826E-01   -0.15295E-03  2358   0.401E-02    0.178E-01
RMM:  84    -0.113115425453E+04   -0.13011E-01   -0.12589E-03  2390   0.350E-02    0.156E-01
RMM:  85    -0.113115890571E+04   -0.46512E-02   -0.48628E-04  2365   0.244E-02    0.112E-01
RMM:  86    -0.113116132960E+04   -0.24239E-02   -0.21276E-04  2247   0.173E-02    0.962E-02
RMM:  87    -0.113116337688E+04   -0.20473E-02   -0.13532E-04  2172   0.130E-02    0.644E-02
RMM:  88    -0.113116499467E+04   -0.16178E-02   -0.95680E-05  2132   0.111E-02    0.573E-02
RMM:  89    -0.113116652403E+04   -0.15294E-02   -0.94296E-05  2150   0.958E-03    0.382E-02
RMM:  90    -0.113116728525E+04   -0.76123E-03   -0.40595E-05  2007   0.716E-03    0.315E-02
RMM:  91    -0.113116784221E+04   -0.55696E-03   -0.29705E-05  1896   0.711E-03    0.307E-02
RMM:  92    -0.113116832294E+04   -0.48073E-03   -0.25690E-05  1903   0.570E-03    0.235E-02
RMM:  93    -0.113116854663E+04   -0.22369E-03   -0.91258E-06  1644   0.405E-03    0.175E-02
RMM:  94    -0.113116866000E+04   -0.11337E-03   -0.43586E-06  1460   0.298E-03    0.171E-02
RMM:  95    -0.113116877988E+04   -0.11988E-03   -0.33015E-06  1373   0.249E-03    0.150E-02
RMM:  96    -0.113116890257E+04   -0.12269E-03   -0.41834E-06  1459   0.234E-03    0.112E-02
RMM:  97    -0.113116894967E+04   -0.47100E-04   -0.16949E-06  1234   0.189E-03    0.817E-03
RMM:  98    -0.113116900991E+04   -0.60240E-04   -0.18270E-06  1225   0.167E-03    0.596E-03
RMM:  99    -0.113116906426E+04   -0.54350E-04   -0.18453E-06  1209   0.165E-03    0.429E-03
RMM: 100    -0.113116910271E+04   -0.38446E-04   -0.15806E-06  1167   0.150E-03    0.318E-03
RMM: 101    -0.113116913025E+04   -0.27544E-04   -0.13523E-06  1122   0.146E-03    0.278E-03
RMM: 102    -0.113116915274E+04   -0.22492E-04   -0.13595E-06  1152   0.135E-03    0.166E-03
RMM: 103    -0.113116916476E+04   -0.12019E-04   -0.97894E-07  1054   0.130E-03    0.157E-03
RMM: 104    -0.113116917242E+04   -0.76578E-05   -0.78884E-07  1034   0.110E-03    0.107E-03
RMM: 105    -0.113116917707E+04   -0.46520E-05   -0.61477E-07  1013   0.104E-03    0.618E-04
RMM: 106    -0.113116917982E+04   -0.27529E-05   -0.49063E-07   973   0.883E-04    0.735E-04
RMM: 107    -0.113116918065E+04   -0.82571E-06   -0.31932E-07   902   0.805E-04
   1 F= -.11386183E+04 E0= -.11386091E+04  d E =-.113862E+04  mag=    44.1198
       N       E                     dE             d eps       ncg     rms          rms(c)
DAV:   1    -0.113113585110E+04    0.33329E-01   -0.12955E+01  2076   0.670E+00    0.210E+00
RMM:   2    -0.113116477148E+04   -0.28920E-01   -0.37071E-01  2128   0.138E+00    0.226E+00
RMM:   3    -0.113118841954E+04   -0.23648E-01   -0.11181E-01  2228   0.772E-01    0.375E+00
RMM:   4    -0.113117059745E+04    0.17822E-01   -0.46540E-02  2373   0.470E-01    0.255E+00
RMM:   5    -0.113116820530E+04    0.23922E-02   -0.25306E-02  2185   0.313E-01    0.322E+00
RMM:   6    -0.113115448088E+04    0.13724E-01   -0.14853E-02  2159   0.253E-01    0.949E-01
RMM:   7    -0.113115797872E+04   -0.34978E-02   -0.78286E-03  2203   0.189E-01    0.105E+00
RMM:   8    -0.113115626730E+04    0.17114E-02   -0.45046E-03  2228   0.153E-01    0.721E-01
RMM:   9    -0.113115786234E+04   -0.15950E-02   -0.31752E-03  2251   0.101E-01    0.106E+00
RMM:  10    -0.113115606307E+04    0.17993E-02   -0.25287E-03  2166   0.106E-01    0.460E-01
RMM:  11    -0.113115628559E+04   -0.22252E-03   -0.90882E-04  2195   0.665E-02    0.358E-01
RMM:  12    -0.113115607987E+04    0.20572E-03   -0.44244E-04  2162   0.462E-02    0.140E-01
RMM:  13    -0.113115618221E+04   -0.10234E-03   -0.16218E-04  2130   0.272E-02    0.135E-01
RMM:  14    -0.113115618509E+04   -0.28845E-05   -0.93801E-05  1969   0.209E-02    0.117E-01
RMM:  15    -0.113115618150E+04    0.35947E-05   -0.38983E-05  1759   0.141E-02    0.520E-02
RMM:  16    -0.113115623871E+04   -0.57209E-04   -0.24342E-05  1697   0.100E-02    0.612E-02
RMM:  17    -0.113115625675E+04   -0.18047E-04   -0.14960E-05  1490   0.846E-03    0.362E-02
RMM:  18    -0.113115629782E+04   -0.41071E-04   -0.60522E-06  1434   0.518E-03    0.255E-02
RMM:  19    -0.113115632027E+04   -0.22444E-04   -0.40536E-06  1379   0.437E-03    0.261E-02
RMM:  20    -0.113115634911E+04   -0.28845E-04   -0.27577E-06  1340   0.355E-03    0.926E-03
RMM:  21    -0.113115639646E+04   -0.47343E-04   -0.31013E-06  1357   0.283E-03    0.163E-02
RMM:  22    -0.113115641762E+04   -0.21166E-04   -0.18108E-06  1268   0.281E-03    0.131E-02
RMM:  23    -0.113115646536E+04   -0.47738E-04   -0.28910E-06  1343   0.243E-03    0.662E-03
RMM:  24    -0.113115650897E+04   -0.43612E-04   -0.26195E-06  1315   0.203E-03    0.639E-03
RMM:  25    -0.113115652988E+04   -0.20911E-04   -0.13585E-06  1163   0.187E-03    0.645E-03
RMM:  26    -0.113115655372E+04   -0.23842E-04   -0.14416E-06  1148   0.172E-03    0.292E-03
RMM:  27    -0.113115658689E+04   -0.33161E-04   -0.21528E-06  1241   0.169E-03    0.287E-03
RMM:  28    -0.113115660358E+04   -0.16699E-04   -0.13752E-06  1115   0.162E-03    0.350E-03
RMM:  29    -0.113115661762E+04   -0.14032E-04   -0.12324E-06  1116   0.144E-03    0.233E-03
RMM:  30    -0.113115663433E+04   -0.16717E-04   -0.14307E-06  1143   0.141E-03    0.130E-03
RMM:  31    -0.113115664581E+04   -0.11474E-04   -0.11954E-06  1112   0.132E-03    0.180E-03
RMM:  32    -0.113115665055E+04   -0.47454E-05   -0.76987E-07  1013   0.120E-03    0.143E-03
RMM:  33    -0.113115665510E+04   -0.45448E-05   -0.62004E-07   988   0.999E-04    0.583E-04
RMM:  34    -0.113115665848E+04   -0.33853E-05   -0.47617E-07   980   0.909E-04    0.404E-04
RMM:  35    -0.113115666066E+04   -0.21784E-05   -0.34719E-07   929   0.768E-04    0.495E-04
RMM:  36    -0.113115666260E+04   -0.19348E-05   -0.27742E-07   909   0.693E-04    0.350E-04
RMM:  37    -0.113115666380E+04   -0.12069E-05   -0.20186E-07   834   0.609E-04    0.168E-04
RMM:  38    -0.113115666466E+04   -0.85933E-06   -0.15242E-07   816   0.541E-04
   2 F= -.11386148E+04 E0= -.11386058E+04  d E =0.350455E-02  mag=    44.1059
       N       E                     dE             d eps       ncg     rms          rms(c)
DAV:   1    -0.113116911545E+04   -0.12452E-01   -0.37772E+00  2016   0.363E+00    0.114E+00
RMM:   2    -0.113117704862E+04   -0.79332E-02   -0.10517E-01  2119   0.742E-01    0.125E+00
RMM:   3    -0.113118497702E+04   -0.79284E-02   -0.32919E-02  2212   0.424E-01    0.180E+00
RMM:   4    -0.113117683146E+04    0.81456E-02   -0.13353E-02  2359   0.264E-01    0.110E+00
RMM:   5    -0.113117881728E+04   -0.19858E-02   -0.61925E-03  2220   0.155E-01    0.150E+00
RMM:   6    -0.113117482371E+04    0.39936E-02   -0.40478E-03  2174   0.130E-01    0.479E-01
RMM:   7    -0.113117553273E+04   -0.70902E-03   -0.20775E-03  2202   0.992E-02    0.584E-01
RMM:   8    -0.113117493066E+04    0.60207E-03   -0.12720E-03  2259   0.750E-02    0.405E-01
RMM:   9    -0.113117542625E+04   -0.49560E-03   -0.10266E-03  2222   0.608E-02    0.599E-01
RMM:  10    -0.113117470424E+04    0.72202E-03   -0.67160E-04  2154   0.555E-02    0.188E-01
RMM:  11    -0.113117497189E+04   -0.26765E-03   -0.40238E-04  2112   0.429E-02    0.244E-01
RMM:  12    -0.113117481431E+04    0.15758E-03   -0.12213E-04  2042   0.267E-02    0.582E-02
RMM:  13    -0.113117486273E+04   -0.48423E-04   -0.51505E-05  1803   0.157E-02    0.793E-02
RMM:  14    -0.113117486209E+04    0.63569E-06   -0.19606E-05  1613   0.104E-02    0.361E-02
RMM:  15    -0.113117487679E+04   -0.14694E-04   -0.94362E-06  1452   0.711E-03    0.347E-02
RMM:  16    -0.113117488397E+04   -0.71828E-05   -0.57141E-06  1395   0.578E-03    0.225E-02
RMM:  17    -0.113117489537E+04   -0.11399E-04   -0.26796E-06  1317   0.391E-03    0.115E-02
RMM:  18    -0.113117490475E+04   -0.93861E-05   -0.17788E-06  1286   0.315E-03    0.160E-02
RMM:  19    -0.113117491023E+04   -0.54742E-05   -0.11622E-06  1224   0.269E-03    0.867E-03
RMM:  20    -0.113117491905E+04   -0.88229E-05   -0.63690E-07  1162   0.174E-03    0.554E-03
RMM:  21    -0.113117492568E+04   -0.66275E-05   -0.64418E-07  1158   0.182E-03    0.874E-03
RMM:  22    -0.113117493493E+04   -0.92487E-05   -0.60476E-07  1159   0.161E-03    0.572E-03
RMM:  23    -0.113117494432E+04   -0.93965E-05   -0.52626E-07  1120   0.125E-03    0.369E-03
RMM:  24    -0.113117494796E+04   -0.36385E-05   -0.36647E-07  1006   0.121E-03    0.353E-03
RMM:  25    -0.113117495422E+04   -0.62551E-05   -0.31191E-07   993   0.897E-04    0.262E-03
RMM:  26    -0.113117495955E+04   -0.53280E-05   -0.25582E-07   985   0.843E-04    0.285E-03
RMM:  27    -0.113117496381E+04   -0.42646E-05   -0.22777E-07   917   0.780E-04    0.143E-03
RMM:  28    -0.113117497106E+04   -0.72516E-05   -0.27355E-07   994   0.707E-04    0.104E-03
RMM:  29    -0.113117497648E+04   -0.54138E-05   -0.26331E-07   991   0.721E-04    0.138E-03
RMM:  30    -0.113117497925E+04   -0.27786E-05   -0.21123E-07   899   0.660E-04    0.130E-03
RMM:  31    -0.113117498295E+04   -0.36978E-05   -0.21002E-07   900   0.616E-04    0.535E-04
RMM:  32    -0.113117498684E+04   -0.38879E-05   -0.23835E-07   970   0.612E-04    0.520E-04
RMM:  33    -0.113117498837E+04   -0.15310E-05   -0.17649E-07   889   0.573E-04    0.296E-04
RMM:  34    -0.113117498948E+04   -0.11122E-05   -0.13443E-07   779   0.483E-04    0.231E-04
RMM:  35    -0.113117499015E+04   -0.66915E-06   -0.94017E-08   728   0.458E-04
   3 F= -.11386283E+04 E0= -.11386191E+04  d E =-.995167E-02  mag=    44.1134
       N       E                     dE             d eps       ncg     rms          rms(c)
DAV:   1    -0.113117576220E+04   -0.77272E-03   -0.32289E+00  1968   0.304E+00    0.105E+00
RMM:   2    -0.113118022919E+04   -0.44670E-02   -0.63305E-02  2004   0.598E-01    0.107E+00
RMM:   3    -0.113119237973E+04   -0.12151E-01   -0.24978E-02  2211   0.349E-01    0.218E+00
RMM:   4    -0.113118394652E+04    0.84332E-02   -0.10909E-02  2308   0.232E-01    0.151E+00
RMM:   5    -0.113118151649E+04    0.24300E-02   -0.54192E-03  2180   0.142E-01    0.914E-01
RMM:   6    -0.113118189103E+04   -0.37454E-03   -0.28120E-03  2161   0.116E-01    0.635E-01
RMM:   7    -0.113118156419E+04    0.32684E-03   -0.14668E-03  2265   0.750E-02    0.511E-01
RMM:   8    -0.113118155083E+04    0.13356E-04   -0.10323E-03  2172   0.673E-02    0.433E-01
RMM:   9    -0.113118135910E+04    0.19173E-03   -0.59632E-04  2200   0.527E-02    0.273E-01
RMM:  10    -0.113118133350E+04    0.25605E-04   -0.30011E-04  2202   0.399E-02    0.161E-01
RMM:  11    -0.113118140610E+04   -0.72606E-04   -0.15984E-04  2156   0.261E-02    0.165E-01
RMM:  12    -0.113118136966E+04    0.36443E-04   -0.89675E-05  1941   0.218E-02    0.733E-02
RMM:  13    -0.113118140311E+04   -0.33447E-04   -0.28952E-05  1753   0.120E-02    0.959E-02
RMM:  14    -0.113118139131E+04    0.11799E-04   -0.15722E-05  1485   0.933E-03    0.667E-02
RMM:  15    -0.113118140432E+04   -0.13015E-04   -0.72275E-06  1424   0.623E-03    0.288E-02
RMM:  16    -0.113118142613E+04   -0.21806E-04   -0.60147E-06  1405   0.565E-03    0.283E-02
RMM:  17    -0.113118143835E+04   -0.12224E-04   -0.33484E-06  1350   0.453E-03    0.234E-02
RMM:  18    -0.113118145237E+04   -0.14020E-04   -0.16542E-06  1257   0.301E-03    0.132E-02
RMM:  19    -0.113118145825E+04   -0.58739E-05   -0.10187E-06  1193   0.258E-03    0.734E-03
RMM:  20    -0.113118146855E+04   -0.10304E-04   -0.62773E-07  1162   0.162E-03    0.518E-03
RMM:  21    -0.113118147608E+04   -0.75324E-05   -0.49834E-07  1148   0.149E-03    0.624E-03
RMM:  22    -0.113118148428E+04   -0.81923E-05   -0.49971E-07  1088   0.137E-03    0.438E-03
RMM:  23    -0.113118149719E+04   -0.12916E-04   -0.63228E-07  1124   0.119E-03    0.459E-03
RMM:  24    -0.113118150276E+04   -0.55637E-05   -0.45265E-07  1032   0.123E-03    0.425E-03
RMM:  25    -0.113118150888E+04   -0.61290E-05   -0.40809E-07   999   0.989E-04    0.150E-03
RMM:  26    -0.113118151618E+04   -0.72995E-05   -0.41873E-07  1026   0.894E-04    0.117E-03
RMM:  27    -0.113118151951E+04   -0.33278E-05   -0.30458E-07   956   0.820E-04    0.147E-03
RMM:  28    -0.113118152366E+04   -0.41450E-05   -0.29884E-07   936   0.729E-04    0.838E-04
RMM:  29    -0.113118152924E+04   -0.55803E-05   -0.35041E-07  1006   0.746E-04    0.520E-04
RMM:  30    -0.113118153346E+04   -0.42197E-05   -0.35420E-07   990   0.747E-04    0.650E-04
RMM:  31    -0.113118153553E+04   -0.20716E-05   -0.27612E-07   901   0.702E-04    0.863E-04
RMM:  32    -0.113118153775E+04   -0.22199E-05   -0.25170E-07   907   0.639E-04    0.286E-04
RMM:  33    -0.113118153963E+04   -0.18835E-05   -0.22759E-07   919   0.623E-04    0.208E-04
RMM:  34    -0.113118154046E+04   -0.82568E-06   -0.16034E-07   831   0.544E-04
   4 F= -.11386391E+04 E0= -.11386301E+04  d E =-.108879E-01  mag=    44.1082
       N       E                     dE             d eps       ncg     rms          rms(c)
DAV:   1    -0.113117849115E+04    0.30485E-02   -0.11770E+00  2064   0.184E+00    0.637E-01
RMM:   2    -0.113117985548E+04   -0.13643E-02   -0.22555E-02  2000   0.360E-01    0.639E-01
RMM:   3    -0.113118455890E+04   -0.47034E-02   -0.90174E-03  2216   0.210E-01    0.132E+00
RMM:   4    -0.113118076158E+04    0.37973E-02   -0.39466E-03  2303   0.142E-01    0.802E-01
RMM:   5    -0.113118071688E+04    0.44700E-04   -0.17650E-03  2184   0.802E-02    0.671E-01
RMM:   6    -0.113118049030E+04    0.22659E-03   -0.10531E-03  2164   0.706E-02    0.336E-01
RMM:   7    -0.113118042172E+04    0.68584E-04   -0.51330E-04  2196   0.501E-02    0.193E-01
RMM:   8    -0.113118045965E+04   -0.37938E-04   -0.28977E-04  2215   0.377E-02    0.124E-01
RMM:   9    -0.113118050731E+04   -0.47660E-04   -0.12975E-04  2222   0.252E-02    0.175E-01
RMM:  10    -0.113118046424E+04    0.43072E-04   -0.91191E-05  1833   0.183E-02    0.121E-01
RMM:  11    -0.113118049801E+04   -0.33773E-04   -0.60885E-05  1828   0.166E-02    0.106E-01
RMM:  12    -0.113118047331E+04    0.24704E-04   -0.26845E-05  1584   0.124E-02    0.250E-02
RMM:  13    -0.113118049220E+04   -0.18887E-04   -0.88306E-06  1449   0.683E-03    0.434E-02
RMM:  14    -0.113118049050E+04    0.16939E-05   -0.49904E-06  1381   0.577E-03    0.268E-02
RMM:  15    -0.113118049709E+04   -0.65888E-05   -0.20270E-06  1304   0.342E-03    0.167E-02
RMM:  16    -0.113118050317E+04   -0.60766E-05   -0.16789E-06  1263   0.322E-03    0.131E-02
RMM:  17    -0.113118050956E+04   -0.63869E-05   -0.90090E-07  1178   0.238E-03    0.965E-03
RMM:  18    -0.113118051451E+04   -0.49557E-05   -0.55352E-07  1154   0.182E-03    0.793E-03
RMM:  19    -0.113118051709E+04   -0.25812E-05   -0.37746E-07  1142   0.150E-03    0.459E-03
RMM:  20    -0.113118052163E+04   -0.45396E-05   -0.26049E-07  1101   0.104E-03    0.336E-03
RMM:  21    -0.113118052628E+04   -0.46461E-05   -0.23809E-07  1046   0.916E-04    0.393E-03
RMM:  22    -0.113118052924E+04   -0.29658E-05   -0.21379E-07   997   0.923E-04    0.232E-03
RMM:  23    -0.113118053409E+04   -0.48510E-05   -0.24268E-07   986   0.747E-04    0.233E-03
RMM:  24    -0.113118053730E+04   -0.32086E-05   -0.19526E-07   958   0.723E-04    0.174E-03
RMM:  25    -0.113118053867E+04   -0.13697E-05   -0.14108E-07   855   0.600E-04    0.140E-03
RMM:  26    -0.113118054089E+04   -0.22178E-05   -0.13367E-07   877   0.545E-04    0.521E-04
RMM:  27    -0.113118054377E+04   -0.28751E-05   -0.15749E-07   908   0.529E-04    0.466E-04
RMM:  28    -0.113118054569E+04   -0.19214E-05   -0.13954E-07   900   0.543E-04    0.654E-04
RMM:  29    -0.113118054680E+04   -0.11173E-05   -0.11199E-07   820   0.490E-04    0.552E-04
RMM:  30    -0.113118054859E+04   -0.17870E-05   -0.12742E-07   872   0.488E-04    0.300E-04
RMM:  31    -0.113118055002E+04   -0.14240E-05   -0.12214E-07   876   0.492E-04    0.179E-04
RMM:  32    -0.113118055086E+04   -0.84109E-06   -0.10075E-07   788   0.456E-04
   5 F= -.11386408E+04 E0= -.11386317E+04  d E =-.125299E-01  mag=    44.1050
       N       E                     dE             d eps       ncg     rms          rms(c)
DAV:   1    -0.113117526679E+04    0.52832E-02   -0.37506E+00  1980   0.321E+00    0.104E+00
RMM:   2    -0.113118372603E+04   -0.84592E-02   -0.68794E-02  2192   0.598E-01    0.110E+00
RMM:   3    -0.113119606506E+04   -0.12339E-01   -0.26495E-02  2235   0.364E-01    0.216E+00
RMM:   4    -0.113118787780E+04    0.81873E-02   -0.10969E-02  2331   0.233E-01    0.150E+00
RMM:   5    -0.113118477529E+04    0.31025E-02   -0.49907E-03  2231   0.137E-01    0.730E-01
RMM:   6    -0.113118584412E+04   -0.10688E-02   -0.28748E-03  2167   0.112E-01    0.742E-01
RMM:   7    -0.113118522224E+04    0.62188E-03   -0.16034E-03  2365   0.695E-02    0.511E-01
RMM:   8    -0.113118498929E+04    0.23295E-03   -0.99044E-04  2190   0.699E-02    0.278E-01
RMM:   9    -0.113118511540E+04   -0.12611E-03   -0.53971E-04  2216   0.487E-02    0.308E-01
RMM:  10    -0.113118495009E+04    0.16532E-03   -0.28448E-04  2206   0.389E-02    0.114E-01
RMM:  11    -0.113118505205E+04   -0.10196E-03   -0.11385E-04  2122   0.228E-02    0.138E-01
RMM:  12    -0.113118503798E+04    0.14066E-04   -0.65430E-05  1840   0.185E-02    0.109E-01
RMM:  13    -0.113118504037E+04   -0.23856E-05   -0.21920E-05  1642   0.109E-02    0.889E-02
RMM:  14    -0.113118504739E+04   -0.70225E-05   -0.12853E-05  1477   0.809E-03    0.607E-02
RMM:  15    -0.113118506320E+04   -0.15815E-04   -0.85187E-06  1439   0.684E-03    0.245E-02
RMM:  16    -0.113118509054E+04   -0.27331E-04   -0.49153E-06  1393   0.506E-03    0.278E-02
RMM:  17    -0.113118510061E+04   -0.10077E-04   -0.32450E-06  1350   0.448E-03    0.232E-02
RMM:  18    -0.113118512031E+04   -0.19695E-04   -0.16563E-06  1233   0.291E-03    0.777E-03
RMM:  19    -0.113118513232E+04   -0.12012E-04   -0.11082E-06  1198   0.246E-03    0.102E-02
RMM:  20    -0.113118514182E+04   -0.95013E-05   -0.74497E-07  1152   0.191E-03    0.476E-03
RMM:  21    -0.113118515748E+04   -0.15662E-04   -0.67272E-07  1144   0.138E-03    0.436E-03
RMM:  22    -0.113118516812E+04   -0.10633E-04   -0.60378E-07  1084   0.150E-03    0.671E-03
RMM:  23    -0.113118518492E+04   -0.16802E-04   -0.83042E-07  1144   0.143E-03    0.381E-03
RMM:  24    -0.113118519839E+04   -0.13473E-04   -0.73381E-07  1071   0.125E-03    0.222E-03
RMM:  25    -0.113118520419E+04   -0.57980E-05   -0.49623E-07  1016   0.113E-03    0.234E-03
RMM:  26    -0.113118521208E+04   -0.78938E-05   -0.48845E-07  1015   0.969E-04    0.146E-03
RMM:  27    -0.113118522290E+04   -0.10822E-04   -0.61246E-07  1051   0.996E-04    0.999E-04
RMM:  28    -0.113118522884E+04   -0.59411E-05   -0.50774E-07  1030   0.975E-04    0.172E-03
RMM:  29    -0.113118523470E+04   -0.58509E-05   -0.49152E-07   984   0.887E-04    0.863E-04
RMM:  30    -0.113118524063E+04   -0.59336E-05   -0.50074E-07  1006   0.892E-04    0.536E-04
RMM:  31    -0.113118524479E+04   -0.41655E-05   -0.44392E-07  1002   0.832E-04    0.822E-04
RMM:  32    -0.113118524669E+04   -0.18947E-05   -0.31326E-07   918   0.775E-04    0.632E-04
RMM:  33    -0.113118524913E+04   -0.24425E-05   -0.29289E-07   907   0.661E-04    0.240E-04
RMM:  34    -0.113118525064E+04   -0.15124E-05   -0.21892E-07   889   0.656E-04    0.209E-04
RMM:  35    -0.113118525143E+04   -0.78899E-06   -0.15721E-07   797   0.525E-04
   6 F= -.11386478E+04 E0= -.11386388E+04  d E =-.702460E-02  mag=    44.1027
       N       E                     dE             d eps       ncg     rms          rms(c)
DAV:   1    -0.113118509265E+04    0.15799E-03   -0.13917E-02  2148   0.196E-01    0.637E-02
RMM:   2    -0.113118509318E+04   -0.52260E-06   -0.24417E-04  2194   0.363E-02    0.687E-02
RMM:   3    -0.113118516683E+04   -0.73655E-04   -0.98521E-05  2132   0.224E-02    0.142E-01
RMM:   4    -0.113118510528E+04    0.61556E-04   -0.41543E-05  1812   0.148E-02    0.629E-02
RMM:   5    -0.113118512516E+04   -0.19886E-04   -0.15349E-05  1487   0.816E-03    0.680E-02
RMM:   6    -0.113118512167E+04    0.34940E-05   -0.10348E-05  1462   0.707E-03    0.356E-02
RMM:   7    -0.113118512547E+04   -0.38024E-05   -0.60145E-06  1404   0.572E-03    0.288E-02
RMM:   8    -0.113118512649E+04   -0.10230E-05   -0.38733E-06  1303   0.460E-03    0.265E-02
RMM:   9    -0.113118512649E+04    0.62355E-08   -0.24633E-06  1265   0.372E-03
   7 F= -.11386478E+04 E0= -.11386388E+04  d E =-.704210E-02  mag=    44.1026
       N       E                     dE             d eps       ncg     rms          rms(c)
DAV:   1    -0.113118742043E+04   -0.22939E-02   -0.53805E-01  1956   0.144E+00    0.341E-01
RMM:   2    -0.113118903056E+04   -0.16101E-02   -0.12340E-02  2292   0.256E-01    0.552E-01
RMM:   3    -0.113119007856E+04   -0.10480E-02   -0.37172E-03  2275   0.135E-01    0.736E-01
RMM:   4    -0.113118919373E+04    0.88483E-03   -0.15139E-03  2364   0.809E-02    0.444E-01
RMM:   5    -0.113118897610E+04    0.21763E-03   -0.53725E-04  2192   0.474E-02    0.187E-01
RMM:   6    -0.113118925822E+04   -0.28212E-03   -0.28086E-04  2202   0.328E-02    0.379E-01
RMM:   7    -0.113118897442E+04    0.28380E-03   -0.17679E-04  2111   0.262E-02    0.143E-01
RMM:   8    -0.113118909569E+04   -0.12127E-03   -0.13659E-04  2049   0.251E-02    0.153E-01
RMM:   9    -0.113118905780E+04    0.37883E-04   -0.79597E-05  2038   0.204E-02    0.582E-02
RMM:  10    -0.113118909002E+04   -0.32215E-04   -0.44393E-05  1848   0.154E-02    0.705E-02
RMM:  11    -0.113118908351E+04    0.65073E-05   -0.22108E-05  1558   0.108E-02    0.458E-02
RMM:  12    -0.113118908379E+04   -0.28197E-06   -0.73814E-06  1414   0.681E-03
   8 F= -.11386510E+04 E0= -.11386419E+04  d E =-.319653E-02  mag=    44.1028
       N       E                     dE             d eps       ncg     rms          rms(c)
DAV:   1    -0.113118915379E+04   -0.70277E-04   -0.50215E-01  2016   0.139E+00    0.330E-01
RMM:   2    -0.113119069493E+04   -0.15411E-02   -0.11560E-02  2292   0.248E-01    0.516E-01
RMM:   3    -0.113119204194E+04   -0.13470E-02   -0.34545E-03  2269   0.134E-01    0.880E-01
RMM:   4    -0.113119154855E+04    0.49340E-03   -0.17910E-03  2365   0.818E-02    0.800E-01
RMM:   5    -0.113119040124E+04    0.11473E-02   -0.79442E-04  2151   0.607E-02    0.161E-01
RMM:   6    -0.113119076291E+04   -0.36167E-03   -0.30957E-04  2190   0.357E-02    0.252E-01
RMM:   7    -0.113119065926E+04    0.10365E-03   -0.16429E-04  2180   0.275E-02    0.142E-01
RMM:   8    -0.113119072437E+04   -0.65110E-04   -0.12237E-04  1975   0.225E-02    0.154E-01
RMM:   9    -0.113119069416E+04    0.30204E-04   -0.83920E-05  2024   0.200E-02    0.642E-02
RMM:  10    -0.113119071247E+04   -0.18308E-04   -0.35041E-05  1806   0.139E-02    0.577E-02
RMM:  11    -0.113119071099E+04    0.14758E-05   -0.17312E-05  1500   0.936E-03    0.471E-02
RMM:  12    -0.113119070910E+04    0.18892E-05   -0.67952E-06  1411   0.668E-03    0.134E-02
RMM:  13    -0.113119071437E+04   -0.52616E-05   -0.22799E-06  1316   0.373E-03    0.171E-02
RMM:  14    -0.113119071491E+04   -0.54787E-06   -0.13120E-06  1235   0.298E-03
   9 F= -.11386519E+04 E0= -.11386428E+04  d E =-.409258E-02  mag=    44.1033
       N       E                     dE             d eps       ncg     rms          rms(c)
DAV:   1    -0.113119266792E+04   -0.19536E-02   -0.46497E-01  1956   0.144E+00    0.261E-01
RMM:   2    -0.113119384220E+04   -0.11743E-02   -0.10606E-02  2303   0.226E-01    0.454E-01
RMM:   3    -0.113119450861E+04   -0.66641E-03   -0.24716E-03  2286   0.108E-01    0.610E-01
RMM:   4    -0.113119404459E+04    0.46403E-03   -0.10363E-03  2389   0.642E-02    0.420E-01
RMM:   5    -0.113119382399E+04    0.22060E-03   -0.39139E-04  2144   0.422E-02    0.174E-01
RMM:   6    -0.113119402195E+04   -0.19796E-03   -0.21177E-04  2098   0.268E-02    0.276E-01
RMM:   7    -0.113119391296E+04    0.10899E-03   -0.12187E-04  2118   0.211E-02    0.123E-01
RMM:   8    -0.113119393083E+04   -0.17876E-04   -0.79147E-05  1951   0.190E-02    0.107E-01
RMM:   9    -0.113119392812E+04    0.27106E-05   -0.46584E-05  1918   0.154E-02    0.463E-02
RMM:  10    -0.113119395021E+04   -0.22089E-04   -0.25002E-05  1721   0.113E-02    0.530E-02
RMM:  11    -0.113119394887E+04    0.13469E-05   -0.13239E-05  1463   0.840E-03    0.356E-02
RMM:  12    -0.113119395128E+04   -0.24114E-05   -0.40771E-06  1365   0.528E-03    0.244E-02
RMM:  13    -0.113119395303E+04   -0.17550E-05   -0.19743E-06  1295   0.340E-03    0.226E-02
RMM:  14    -0.113119395359E+04   -0.55916E-06   -0.11390E-06  1200   0.284E-03
  10 F= -.11386544E+04 E0= -.11386453E+04  d E =-.247579E-02  mag=    44.1034
       N       E                     dE             d eps       ncg     rms          rms(c)
DAV:   1    -0.113119321449E+04    0.73855E-03   -0.14319E+00  1944   0.253E+00    0.458E-01
RMM:   2    -0.113119719251E+04   -0.39780E-02   -0.32777E-02  2300   0.399E-01    0.837E-01
RMM:   3    -0.113119888175E+04   -0.16892E-02   -0.76882E-03  2293   0.190E-01    0.971E-01
RMM:   4    -0.113119773005E+04    0.11517E-02   -0.30387E-03  2402   0.111E-01    0.711E-01
RMM:   5    -0.113119681805E+04    0.91200E-03   -0.10824E-03  2214   0.685E-02    0.262E-01
RMM:   6    -0.113119755272E+04   -0.73467E-03   -0.65866E-04  2232   0.472E-02    0.555E-01
RMM:   7    -0.113119705502E+04    0.49770E-03   -0.40024E-04  2252   0.364E-02    0.219E-01
RMM:   8    -0.113119715075E+04   -0.95732E-04   -0.26034E-04  2132   0.343E-02    0.212E-01
RMM:   9    -0.113119709234E+04    0.58412E-04   -0.15064E-04  2167   0.274E-02    0.989E-02
RMM:  10    -0.113119715471E+04   -0.62364E-04   -0.83135E-05  2030   0.200E-02    0.991E-02
RMM:  11    -0.113119715422E+04    0.48802E-06   -0.46680E-05  1778   0.149E-02    0.800E-02
RMM:  12    -0.113119715636E+04   -0.21427E-05   -0.14126E-05  1493   0.889E-03    0.664E-02
RMM:  13    -0.113119715531E+04    0.10527E-05   -0.66842E-06  1406   0.592E-03    0.502E-02
RMM:  14    -0.113119715655E+04   -0.12450E-05   -0.38374E-06  1348   0.472E-03    0.185E-02
RMM:  15    -0.113119716597E+04   -0.94195E-05   -0.19940E-06  1264   0.307E-03    0.187E-02
RMM:  16    -0.113119716989E+04   -0.39141E-05   -0.16877E-06  1278   0.330E-03    0.193E-02
RMM:  17    -0.113119717246E+04   -0.25761E-05   -0.67838E-07  1150   0.215E-03    0.701E-03
RMM:  18    -0.113119717700E+04   -0.45399E-05   -0.41909E-07  1118   0.155E-03    0.697E-03
RMM:  19    -0.113119717941E+04   -0.24055E-05   -0.31437E-07  1068   0.136E-03    0.412E-03
RMM:  20    -0.113119718217E+04   -0.27613E-05   -0.19198E-07  1019   0.926E-04    0.254E-03
RMM:  21    -0.113119718444E+04   -0.22712E-05   -0.14907E-07   958   0.801E-04    0.370E-03
RMM:  22    -0.113119718624E+04   -0.17963E-05   -0.10984E-07   861   0.695E-04    0.279E-03
RMM:  23    -0.113119718846E+04   -0.22244E-05   -0.87127E-08   814   0.544E-04    0.161E-03
RMM:  24    -0.113119719012E+04   -0.16633E-05   -0.74041E-08   798   0.509E-04    0.151E-03
RMM:  25    -0.113119719115E+04   -0.10304E-05   -0.58697E-08   773   0.473E-04    0.965E-04
RMM:  26    -0.113119719293E+04   -0.17751E-05   -0.62170E-08   768   0.407E-04    0.788E-04
RMM:  27    -0.113119719448E+04   -0.15544E-05   -0.64663E-08   794   0.417E-04    0.681E-04
RMM:  28    -0.113119719535E+04   -0.86549E-06   -0.54575E-08   734   0.407E-04
  11 F= -.11386563E+04 E0= -.11386472E+04  d E =-.437810E-02  mag=    44.1028
       N       E                     dE             d eps       ncg     rms          rms(c)
DAV:   1    -0.113119766836E+04   -0.47388E-03   -0.33252E-01  2016   0.129E+00    0.223E-01
RMM:   2    -0.113119856215E+04   -0.89379E-03   -0.89945E-03  2358   0.207E-01    0.393E-01
RMM:   3    -0.113119900220E+04   -0.44005E-03   -0.18523E-03  2285   0.975E-02    0.578E-01
RMM:   4    -0.113119884340E+04    0.15880E-03   -0.94206E-04  2370   0.606E-02    0.545E-01
RMM:   5    -0.113119830714E+04    0.53626E-03   -0.38238E-04  2126   0.403E-02    0.164E-01
RMM:   6    -0.113119847290E+04   -0.16576E-03   -0.19293E-04  2103   0.289E-02    0.186E-01
RMM:   7    -0.113119842851E+04    0.44391E-04   -0.10839E-04  2067   0.224E-02    0.104E-01
RMM:   8    -0.113119845911E+04   -0.30597E-04   -0.78795E-05  2012   0.192E-02    0.112E-01
RMM:   9    -0.113119843591E+04    0.23198E-04   -0.57500E-05  1919   0.174E-02    0.512E-02
RMM:  10    -0.113119844716E+04   -0.11252E-04   -0.22141E-05  1729   0.110E-02    0.381E-02
RMM:  11    -0.113119845125E+04   -0.40890E-05   -0.13701E-05  1475   0.836E-03    0.459E-02
RMM:  12    -0.113119844680E+04    0.44527E-05   -0.49653E-06  1383   0.593E-03    0.104E-02
RMM:  13    -0.113119845144E+04   -0.46395E-05   -0.17613E-06  1275   0.316E-03    0.172E-02
RMM:  14    -0.113119845230E+04   -0.86514E-06   -0.98376E-07  1182   0.272E-03
  12 F= -.11386582E+04 E0= -.11386491E+04  d E =-.195514E-02  mag=    44.1020
       N       E                     dE             d eps       ncg     rms          rms(c)
DAV:   1    -0.113119560843E+04    0.28430E-02   -0.90638E-01  1968   0.212E+00    0.368E-01
RMM:   2    -0.113119816443E+04   -0.25560E-02   -0.24528E-02  2361   0.342E-01    0.640E-01
RMM:   3    -0.113119933688E+04   -0.11724E-02   -0.50423E-03  2293   0.160E-01    0.946E-01
RMM:   4    -0.113119897997E+04    0.35691E-03   -0.25630E-03  2397   0.995E-02    0.900E-01
RMM:   5    -0.113119745168E+04    0.15283E-02   -0.10589E-03  2174   0.668E-02    0.244E-01
RMM:   6    -0.113119786065E+04   -0.40896E-03   -0.51169E-04  2184   0.469E-02    0.318E-01
RMM:   7    -0.113119769583E+04    0.16481E-03   -0.28654E-04  2184   0.360E-02    0.157E-01
RMM:   8    -0.113119777786E+04   -0.82033E-04   -0.21505E-04  2182   0.319E-02    0.185E-01
RMM:   9    -0.113119771133E+04    0.66531E-04   -0.15080E-04  2137   0.275E-02    0.906E-02
RMM:  10    -0.113119772628E+04   -0.14949E-04   -0.60173E-05  1990   0.181E-02    0.575E-02
RMM:  11    -0.113119774105E+04   -0.14766E-04   -0.34813E-05  1724   0.129E-02    0.769E-02
RMM:  12    -0.113119773050E+04    0.10543E-04   -0.13086E-05  1462   0.898E-03    0.231E-02
RMM:  13    -0.113119774204E+04   -0.11533E-04   -0.47100E-06  1379   0.495E-03    0.296E-02
RMM:  14    -0.113119774476E+04   -0.27269E-05   -0.25247E-06  1316   0.401E-03    0.112E-02
RMM:  15    -0.113119775286E+04   -0.80916E-05   -0.10978E-06  1202   0.252E-03    0.116E-02
RMM:  16    -0.113119775901E+04   -0.61537E-05   -0.97927E-07  1187   0.254E-03    0.110E-02
RMM:  17    -0.113119776520E+04   -0.61935E-05   -0.50163E-07  1139   0.175E-03    0.704E-03
RMM:  18    -0.113119776999E+04   -0.47828E-05   -0.30711E-07  1102   0.126E-03    0.500E-03
RMM:  19    -0.113119777348E+04   -0.34971E-05   -0.23327E-07  1033   0.111E-03    0.338E-03
RMM:  20    -0.113119777957E+04   -0.60834E-05   -0.17397E-07  1034   0.817E-04    0.195E-03
RMM:  21    -0.113119778502E+04   -0.54509E-05   -0.15817E-07   963   0.741E-04    0.299E-03
RMM:  22    -0.113119778891E+04   -0.38930E-05   -0.13610E-07   872   0.710E-04    0.188E-03
RMM:  23    -0.113119779342E+04   -0.45139E-05   -0.12278E-07   856   0.535E-04    0.103E-03
RMM:  24    -0.113119779621E+04   -0.27886E-05   -0.97988E-08   834   0.519E-04    0.102E-03
RMM:  25    -0.113119779842E+04   -0.22046E-05   -0.83145E-08   761   0.463E-04    0.653E-04
RMM:  26    -0.113119780218E+04   -0.37617E-05   -0.10869E-07   868   0.468E-04    0.639E-04
RMM:  27    -0.113119780440E+04   -0.22203E-05   -0.95672E-08   841   0.480E-04    0.808E-04
RMM:  28    -0.113119780632E+04   -0.19214E-05   -0.90454E-08   768   0.442E-04    0.378E-04
RMM:  29    -0.113119780835E+04   -0.20318E-05   -0.10119E-07   827   0.451E-04    0.208E-04
RMM:  30    -0.113119780950E+04   -0.11449E-05   -0.87485E-08   787   0.437E-04    0.191E-04
RMM:  31    -0.113119781031E+04   -0.81059E-06   -0.73572E-08   715   0.410E-04
  13 F= -.11386588E+04 E0= -.11386497E+04  d E =-.246596E-02  mag=    44.1001
       N       E                     dE             d eps       ncg     rms          rms(c)
DAV:   1    -0.113119816874E+04   -0.35924E-03   -0.11233E-01  2112   0.747E-01    0.129E-01
RMM:   2    -0.113119844687E+04   -0.27813E-03   -0.30433E-03  2363   0.120E-01    0.228E-01
RMM:   3    -0.113119860899E+04   -0.16213E-03   -0.62457E-04  2275   0.566E-02    0.340E-01
RMM:   4    -0.113119854092E+04    0.68071E-04   -0.31987E-04  2335   0.352E-02    0.323E-01
RMM:   5    -0.113119835927E+04    0.18165E-03   -0.12842E-04  2001   0.235E-02    0.102E-01
RMM:   6    -0.113119843162E+04   -0.72353E-04   -0.68471E-05  1874   0.172E-02    0.103E-01
RMM:   7    -0.113119842375E+04    0.78726E-05   -0.37868E-05  1806   0.133E-02    0.689E-02
RMM:   8    -0.113119842972E+04   -0.59709E-05   -0.26285E-05  1730   0.112E-02    0.613E-02
RMM:   9    -0.113119842529E+04    0.44318E-05   -0.19914E-05  1659   0.104E-02    0.302E-02
RMM:  10    -0.113119843030E+04   -0.50110E-05   -0.76367E-06  1436   0.677E-03    0.238E-02
RMM:  11    -0.113119843170E+04   -0.14029E-05   -0.51148E-06  1379   0.552E-03    0.281E-02
RMM:  12    -0.113119842984E+04    0.18629E-05   -0.18681E-06  1264   0.381E-03    0.945E-03
RMM:  13    -0.113119843139E+04   -0.15512E-05   -0.69307E-07  1136   0.210E-03    0.112E-02
RMM:  14    -0.113119843174E+04   -0.34670E-06   -0.46004E-07  1125   0.190E-03
  14 F= -.11386590E+04 E0= -.11386499E+04  d E =-.268154E-02  mag=    44.1006
       N       E                     dE             d eps       ncg     rms          rms(c)
DAV:   1    -0.113119806938E+04    0.36201E-03   -0.34164E-01  2016   0.131E+00    0.234E-01
RMM:   2    -0.113119908431E+04   -0.10149E-02   -0.93094E-03  2372   0.210E-01    0.462E-01
RMM:   3    -0.113119960212E+04   -0.51781E-03   -0.19844E-03  2300   0.971E-02    0.707E-01
RMM:   4    -0.113119929670E+04    0.30542E-03   -0.11051E-03  2347   0.651E-02    0.558E-01
RMM:   5    -0.113119865611E+04    0.64059E-03   -0.48911E-04  2160   0.472E-02    0.128E-01
RMM:   6    -0.113119891202E+04   -0.25591E-03   -0.20984E-04  2129   0.296E-02    0.214E-01
RMM:   7    -0.113119881964E+04    0.92384E-04   -0.10243E-04  2078   0.217E-02    0.886E-02
RMM:   8    -0.113119886922E+04   -0.49588E-04   -0.78135E-05  1955   0.194E-02    0.112E-01
RMM:   9    -0.113119884774E+04    0.21486E-04   -0.48926E-05  1889   0.160E-02    0.511E-02
RMM:  10    -0.113119885835E+04   -0.10613E-04   -0.25036E-05  1683   0.116E-02    0.335E-02
RMM:  11    -0.113119886183E+04   -0.34800E-05   -0.99819E-06  1440   0.727E-03    0.421E-02
RMM:  12    -0.113119885736E+04    0.44666E-05   -0.45841E-06  1382   0.572E-03    0.110E-02
RMM:  13    -0.113119886188E+04   -0.45175E-05   -0.13917E-06  1230   0.288E-03    0.131E-02
RMM:  14    -0.113119886208E+04   -0.19841E-06   -0.86493E-07  1149   0.256E-03
  15 F= -.11386604E+04 E0= -.11386513E+04  d E =-.147062E-02  mag=    44.1003
       N       E                     dE             d eps       ncg     rms          rms(c)
DAV:   1    -0.113119625569E+04    0.26062E-02   -0.66516E-01  1998   0.183E+00    0.326E-01
RMM:   2    -0.113119825591E+04   -0.20002E-02   -0.18133E-02  2372   0.293E-01    0.629E-01
RMM:   3    -0.113119928572E+04   -0.10298E-02   -0.38646E-03  2298   0.136E-01    0.986E-01
RMM:   4    -0.113119867275E+04    0.61297E-03   -0.21513E-03  2359   0.906E-02    0.764E-01
RMM:   5    -0.113119745895E+04    0.12138E-02   -0.93827E-04  2187   0.651E-02    0.166E-01
RMM:   6    -0.113119790286E+04   -0.44391E-03   -0.39443E-04  2178   0.402E-02    0.306E-01
RMM:   7    -0.113119770252E+04    0.20034E-03   -0.19585E-04  2155   0.295E-02    0.112E-01
RMM:   8    -0.113119780277E+04   -0.10025E-03   -0.15299E-04  2093   0.270E-02    0.156E-01
RMM:   9    -0.113119775966E+04    0.43114E-04   -0.93742E-05  2064   0.217E-02    0.765E-02
RMM:  10    -0.113119777480E+04   -0.15146E-04   -0.50084E-05  1864   0.162E-02    0.487E-02
RMM:  11    -0.113119778453E+04   -0.97244E-05   -0.20544E-05  1592   0.986E-03    0.594E-02
RMM:  12    -0.113119777775E+04    0.67750E-05   -0.88284E-06  1421   0.749E-03    0.184E-02
RMM:  13    -0.113119778669E+04   -0.89402E-05   -0.24672E-06  1320   0.367E-03    0.177E-02
RMM:  14    -0.113119778795E+04   -0.12576E-05   -0.14908E-06  1259   0.316E-03    0.971E-03
RMM:  15    -0.113119779338E+04   -0.54295E-05   -0.65959E-07  1154   0.202E-03    0.781E-03
RMM:  16    -0.113119779683E+04   -0.34501E-05   -0.61093E-07  1142   0.199E-03    0.981E-03
RMM:  17    -0.113119779892E+04   -0.20912E-05   -0.38627E-07  1129   0.155E-03    0.502E-03
RMM:  18    -0.113119780165E+04   -0.27331E-05   -0.20920E-07  1108   0.103E-03    0.399E-03
RMM:  19    -0.113119780334E+04   -0.16815E-05   -0.15677E-07  1015   0.918E-04    0.298E-03
RMM:  20    -0.113119780636E+04   -0.30213E-05   -0.11557E-07   938   0.694E-04    0.184E-03
RMM:  21    -0.113119780909E+04   -0.27334E-05   -0.10489E-07   923   0.627E-04    0.224E-03
RMM:  22    -0.113119781058E+04   -0.14860E-05   -0.82010E-08   811   0.586E-04    0.150E-03
RMM:  23    -0.113119781250E+04   -0.19241E-05   -0.71920E-08   783   0.472E-04    0.695E-04
RMM:  24    -0.113119781391E+04   -0.14131E-05   -0.62281E-08   797   0.444E-04    0.894E-04
RMM:  25    -0.113119781469E+04   -0.77111E-06   -0.46406E-08   715   0.412E-04
  16 F= -.11386609E+04 E0= -.11386517E+04  d E =-.187535E-02  mag=    44.0998
       N       E                     dE             d eps       ncg     rms          rms(c)
DAV:   1    -0.113119818770E+04   -0.37379E-03   -0.52863E-02  2112   0.517E-01    0.919E-02
RMM:   2    -0.113119832464E+04   -0.13694E-03   -0.14399E-03  2369   0.827E-02    0.182E-01
RMM:   3    -0.113119840447E+04   -0.79835E-04   -0.30485E-04  2282   0.381E-02    0.270E-01
RMM:   4    -0.113119837058E+04    0.33896E-04   -0.17127E-04  2221   0.256E-02    0.251E-01
RMM:   5    -0.113119824048E+04    0.13010E-03   -0.79785E-05  1896   0.187E-02    0.622E-02
RMM:   6    -0.113119830898E+04   -0.68510E-04   -0.36947E-05  1735   0.128E-02    0.743E-02
RMM:   7    -0.113119830524E+04    0.37491E-05   -0.16525E-05  1574   0.896E-03    0.500E-02
RMM:   8    -0.113119830716E+04   -0.19270E-05   -0.11631E-05  1460   0.795E-03    0.378E-02
RMM:   9    -0.113119830830E+04   -0.11382E-05   -0.77294E-06  1439   0.686E-03    0.194E-02
RMM:  10    -0.113119831104E+04   -0.27388E-05   -0.42675E-06  1338   0.526E-03    0.171E-02
RMM:  11    -0.113119831151E+04   -0.46875E-06   -0.24347E-06  1293   0.386E-03
  17 F= -.11386609E+04 E0= -.11386518E+04  d E =-.196281E-02  mag=    44.1000
       N       E                     dE             d eps       ncg     rms          rms(c)
DAV:   1    -0.113119845554E+04   -0.14451E-03   -0.40927E-01  2010   0.142E+00    0.218E-01
RMM:   2    -0.113119950084E+04   -0.10453E-02   -0.10018E-02  2341   0.219E-01    0.347E-01
RMM:   3    -0.113120053696E+04   -0.10361E-02   -0.19171E-03  2292   0.982E-02    0.807E-01
RMM:   4    -0.113119963166E+04    0.90530E-03   -0.99217E-04  2374   0.626E-02    0.432E-01
RMM:   5    -0.113119936015E+04    0.27151E-03   -0.38728E-04  2147   0.424E-02    0.966E-02
RMM:   6    -0.113119951751E+04   -0.15736E-03   -0.14317E-04  2156   0.255E-02    0.148E-01
RMM:   7    -0.113119949120E+04    0.26309E-04   -0.77563E-05  2060   0.180E-02    0.112E-01
RMM:   8    -0.113119950390E+04   -0.12697E-04   -0.68027E-05  1921   0.175E-02    0.104E-01
RMM:   9    -0.113119950105E+04    0.28505E-05   -0.53950E-05  1873   0.161E-02    0.683E-02
RMM:  10    -0.113119950087E+04    0.18163E-06   -0.22225E-05  1728   0.113E-02    0.312E-02
RMM:  11    -0.113119950537E+04   -0.45009E-05   -0.77756E-06  1417   0.632E-03    0.330E-02
RMM:  12    -0.113119950889E+04   -0.35236E-05   -0.38335E-06  1349   0.492E-03    0.133E-02
RMM:  13    -0.113119951472E+04   -0.58311E-05   -0.12578E-06  1225   0.287E-03    0.111E-02
RMM:  14    -0.113119951740E+04   -0.26732E-05   -0.66410E-07  1145   0.211E-03    0.830E-03
RMM:  15    -0.113119952181E+04   -0.44135E-05   -0.41612E-07  1127   0.163E-03    0.436E-03
RMM:  16    -0.113119952699E+04   -0.51747E-05   -0.26759E-07  1123   0.117E-03    0.504E-03
RMM:  17    -0.113119952897E+04   -0.19812E-05   -0.21007E-07  1074   0.108E-03    0.372E-03
RMM:  18    -0.113119953166E+04   -0.26949E-05   -0.13118E-07   945   0.770E-04    0.208E-03
RMM:  19    -0.113119953351E+04   -0.18511E-05   -0.94877E-08   847   0.645E-04    0.254E-03
RMM:  20    -0.113119953551E+04   -0.20006E-05   -0.74753E-08   794   0.568E-04    0.118E-03
RMM:  21    -0.113119953905E+04   -0.35403E-05   -0.94035E-08   904   0.484E-04    0.133E-03
RMM:  22    -0.113119954014E+04   -0.10869E-05   -0.64375E-08   807   0.509E-04    0.100E-03
RMM:  23    -0.113119954230E+04   -0.21613E-05   -0.67335E-08   707   0.389E-04    0.391E-04
RMM:  24    -0.113119954373E+04   -0.14316E-05   -0.58076E-08   720   0.418E-04    0.647E-04
RMM:  25    -0.113119954460E+04   -0.86694E-06   -0.50060E-08   676   0.377E-04
  18 F= -.11386623E+04 E0= -.11386532E+04  d E =-.134269E-02  mag=    44.1001
       N       E                     dE             d eps       ncg     rms          rms(c)
DAV:   1    -0.113119890557E+04    0.63816E-03   -0.35044E-01  1986   0.132E+00    0.202E-01
RMM:   2    -0.113119978192E+04   -0.87634E-03   -0.85801E-03  2343   0.203E-01    0.319E-01
RMM:   3    -0.113120054809E+04   -0.76618E-03   -0.16469E-03  2282   0.914E-02    0.672E-01
RMM:   4    -0.113119999065E+04    0.55744E-03   -0.82813E-04  2394   0.558E-02    0.453E-01
RMM:   5    -0.113119963587E+04    0.35478E-03   -0.31672E-04  2133   0.369E-02    0.104E-01
RMM:   6    -0.113119981239E+04   -0.17652E-03   -0.14066E-04  2093   0.249E-02    0.161E-01
RMM:   7    -0.113119976895E+04    0.43438E-04   -0.70497E-05  2032   0.173E-02    0.891E-02
RMM:   8    -0.113119978895E+04   -0.19997E-04   -0.56396E-05  1906   0.168E-02    0.878E-02
RMM:   9    -0.113119978541E+04    0.35317E-05   -0.45743E-05  1859   0.152E-02    0.588E-02
RMM:  10    -0.113119979046E+04   -0.50425E-05   -0.18818E-05  1689   0.104E-02    0.296E-02
RMM:  11    -0.113119979483E+04   -0.43716E-05   -0.71055E-06  1407   0.619E-03    0.324E-02
RMM:  12    -0.113119979877E+04   -0.39427E-05   -0.35407E-06  1360   0.483E-03    0.132E-02
RMM:  13    -0.113119980501E+04   -0.62342E-05   -0.12507E-06  1223   0.286E-03    0.121E-02
RMM:  14    -0.113119980774E+04   -0.27392E-05   -0.71868E-07  1154   0.218E-03    0.810E-03
RMM:  15    -0.113119981271E+04   -0.49674E-05   -0.38609E-07  1128   0.156E-03    0.431E-03
RMM:  16    -0.113119981764E+04   -0.49256E-05   -0.30309E-07  1129   0.127E-03    0.627E-03
RMM:  17    -0.113119982070E+04   -0.30660E-05   -0.22707E-07  1057   0.114E-03    0.285E-03
RMM:  18    -0.113119982407E+04   -0.33665E-05   -0.13487E-07   964   0.722E-04    0.214E-03
RMM:  19    -0.113119982603E+04   -0.19589E-05   -0.98266E-08   859   0.680E-04    0.232E-03
RMM:  20    -0.113119982871E+04   -0.26848E-05   -0.82178E-08   820   0.549E-04    0.120E-03
RMM:  21    -0.113119983267E+04   -0.39538E-05   -0.10206E-07   920   0.509E-04    0.138E-03
RMM:  22    -0.113119983403E+04   -0.13658E-05   -0.73325E-08   820   0.516E-04    0.926E-04
RMM:  23    -0.113119983646E+04   -0.24289E-05   -0.76783E-08   727   0.404E-04    0.418E-04
RMM:  24    -0.113119983801E+04   -0.15487E-05   -0.66342E-08   738   0.429E-04    0.647E-04
RMM:  25    -0.113119983908E+04   -0.10647E-05   -0.59214E-08   694   0.390E-04    0.430E-04
RMM:  26    -0.113119984078E+04   -0.16999E-05   -0.76411E-08   756   0.407E-04    0.339E-04
RMM:  27    -0.113119984179E+04   -0.10160E-05   -0.70747E-08   754   0.410E-04    0.439E-04
RMM:  28    -0.113119984240E+04   -0.60759E-06   -0.58208E-08   686   0.389E-04
  19 F= -.11386627E+04 E0= -.11386535E+04  d E =-.174234E-02  mag=    44.1003
       N       E                     dE             d eps       ncg     rms          rms(c)
DAV:   1    -0.113120042678E+04   -0.58499E-03   -0.13510E-01  2112   0.818E-01    0.123E-01
RMM:   2    -0.113120072184E+04   -0.29505E-03   -0.32256E-03  2331   0.125E-01    0.170E-01
RMM:   3    -0.113120100176E+04   -0.27993E-03   -0.62212E-04  2276   0.566E-02    0.363E-01
RMM:   4    -0.113120077466E+04    0.22710E-03   -0.27562E-04  2332   0.333E-02    0.229E-01
RMM:   5    -0.113120072078E+04    0.53881E-04   -0.82792E-05  1929   0.180E-02    0.908E-02
RMM:   6    -0.113120077568E+04   -0.54897E-04   -0.48584E-05  1819   0.145E-02    0.978E-02
RMM:   7    -0.113120076343E+04    0.12251E-04   -0.24146E-05  1750   0.108E-02    0.503E-02
RMM:   8    -0.113120077467E+04   -0.11240E-04   -0.19142E-05  1635   0.997E-03    0.529E-02
RMM:   9    -0.113120077542E+04   -0.75648E-06   -0.16775E-05  1645   0.951E-03    0.312E-02
RMM:  10    -0.113120077813E+04   -0.27041E-05   -0.78628E-06  1424   0.694E-03    0.176E-02
RMM:  11    -0.113120077960E+04   -0.14692E-05   -0.33153E-06  1324   0.452E-03    0.209E-02
RMM:  12    -0.113120077943E+04    0.16586E-06   -0.14911E-06  1249   0.331E-03
  20 F= -.11386635E+04 E0= -.11386544E+04  d E =-.862661E-03  mag=    44.1003
       N       E                     dE             d eps       ncg     rms          rms(c)
DAV:   1    -0.113119904137E+04    0.17382E-02   -0.12157E+00  1944   0.245E+00    0.370E-01
RMM:   2    -0.113120204913E+04   -0.30078E-02   -0.29080E-02  2330   0.374E-01    0.503E-01
RMM:   3    -0.113120458802E+04   -0.25389E-02   -0.56496E-03  2279   0.170E-01    0.111E+00
RMM:   4    -0.113120288847E+04    0.16996E-02   -0.25619E-03  2400   0.992E-02    0.771E-01
RMM:   5    -0.113120190055E+04    0.98792E-03   -0.85222E-04  2196   0.579E-02    0.213E-01
RMM:   6    -0.113120235034E+04   -0.44979E-03   -0.44375E-04  2185   0.429E-02    0.309E-01
RMM:   7    -0.113120215602E+04    0.19432E-03   -0.20910E-04  2247   0.305E-02    0.114E-01
RMM:   8    -0.113120226982E+04   -0.11380E-03   -0.17907E-04  2159   0.298E-02    0.169E-01
RMM:   9    -0.113120224561E+04    0.24204E-04   -0.14415E-04  2165   0.264E-02    0.111E-01
RMM:  10    -0.113120224604E+04   -0.42960E-06   -0.70841E-05  1979   0.198E-02    0.450E-02
RMM:  11    -0.113120226453E+04   -0.18490E-04   -0.23038E-05  1648   0.104E-02    0.598E-02
RMM:  12    -0.113120226264E+04    0.18948E-05   -0.10986E-05  1434   0.775E-03    0.321E-02
RMM:  13    -0.113120227057E+04   -0.79346E-05   -0.31987E-06  1353   0.441E-03    0.203E-02
RMM:  14    -0.113120227635E+04   -0.57768E-05   -0.18245E-06  1289   0.323E-03    0.147E-02
RMM:  15    -0.113120228529E+04   -0.89358E-05   -0.13317E-06  1254   0.285E-03    0.114E-02
RMM:  16    -0.113120229380E+04   -0.85112E-05   -0.69753E-07  1166   0.206E-03    0.121E-02
RMM:  17    -0.113120229686E+04   -0.30664E-05   -0.49060E-07  1128   0.170E-03    0.897E-03
RMM:  18    -0.113120230262E+04   -0.57540E-05   -0.32397E-07  1062   0.132E-03    0.365E-03
RMM:  19    -0.113120230913E+04   -0.65123E-05   -0.22478E-07  1039   0.947E-04    0.392E-03
RMM:  20    -0.113120231218E+04   -0.30483E-05   -0.17199E-07   978   0.902E-04    0.257E-03
RMM:  21    -0.113120231947E+04   -0.72920E-05   -0.18027E-07   941   0.672E-04    0.218E-03
RMM:  22    -0.113120232271E+04   -0.32397E-05   -0.13099E-07   890   0.687E-04    0.224E-03
RMM:  23    -0.113120232602E+04   -0.33135E-05   -0.11881E-07   827   0.555E-04    0.107E-03
RMM:  24    -0.113120232911E+04   -0.30843E-05   -0.10195E-07   828   0.523E-04    0.833E-04
RMM:  25    -0.113120233086E+04   -0.17522E-05   -0.84114E-08   784   0.472E-04    0.948E-04
RMM:  26    -0.113120233416E+04   -0.32965E-05   -0.10893E-07   863   0.478E-04    0.110E-03
RMM:  27    -0.113120233667E+04   -0.25099E-05   -0.11357E-07   882   0.498E-04    0.996E-04
RMM:  28    -0.113120233787E+04   -0.12080E-05   -0.90135E-08   774   0.467E-04    0.607E-04
RMM:  29    -0.113120233949E+04   -0.16155E-05   -0.11351E-07   849   0.452E-04    0.295E-04
RMM:  30    -0.113120234030E+04   -0.80786E-06   -0.94452E-08   838   0.471E-04
  21 F= -.11386649E+04 E0= -.11386557E+04  d E =-.220130E-02  mag=    44.1005
       N       E                     dE             d eps       ncg     rms          rms(c)
DAV:   1    -0.113120230028E+04    0.39210E-04   -0.44672E-02  2100   0.470E-01    0.709E-02
RMM:   2    -0.113120238938E+04   -0.89104E-04   -0.10653E-03  2329   0.716E-02    0.978E-02
RMM:   3    -0.113120248445E+04   -0.95062E-04   -0.20590E-04  2264   0.326E-02    0.211E-01
RMM:   4    -0.113120240061E+04    0.83833E-04   -0.90656E-05  2153   0.193E-02    0.127E-01
RMM:   5    -0.113120239042E+04    0.10193E-04   -0.26801E-05  1635   0.106E-02    0.545E-02
RMM:   6    -0.113120241177E+04   -0.21354E-04   -0.15958E-05  1531   0.853E-03    0.557E-02
RMM:   7    -0.113120240911E+04    0.26616E-05   -0.81476E-06  1449   0.664E-03    0.307E-02
RMM:   8    -0.113120241316E+04   -0.40428E-05   -0.64958E-06  1411   0.620E-03    0.294E-02
RMM:   9    -0.113120241411E+04   -0.94976E-06   -0.57126E-06  1407   0.582E-03
  22 F= -.11386649E+04 E0= -.11386558E+04  d E =-.223270E-02  mag=    44.1005
       N       E                     dE             d eps       ncg     rms          rms(c)
DAV:   1    -0.113120294853E+04   -0.53537E-03   -0.25546E-01  1992   0.113E+00    0.161E-01
RMM:   2    -0.113120352572E+04   -0.57720E-03   -0.59549E-03  2312   0.168E-01    0.240E-01
RMM:   3    -0.113120388679E+04   -0.36107E-03   -0.11010E-03  2246   0.773E-02    0.426E-01
RMM:   4    -0.113120354227E+04    0.34452E-03   -0.44679E-04  2421   0.432E-02    0.217E-01
RMM:   5    -0.113120354648E+04   -0.42100E-05   -0.14971E-04  2056   0.265E-02    0.107E-01
RMM:   6    -0.113120361099E+04   -0.64514E-04   -0.73883E-05  1952   0.167E-02    0.163E-01
RMM:   7    -0.113120357447E+04    0.36520E-04   -0.45276E-05  1838   0.131E-02    0.711E-02
RMM:   8    -0.113120358696E+04   -0.12489E-04   -0.32364E-05  1773   0.125E-02    0.720E-02
RMM:   9    -0.113120358525E+04    0.17121E-05   -0.29220E-05  1796   0.122E-02    0.422E-02
RMM:  10    -0.113120359226E+04   -0.70151E-05   -0.13411E-05  1583   0.880E-03    0.289E-02
RMM:  11    -0.113120359382E+04   -0.15557E-05   -0.55015E-06  1380   0.553E-03    0.217E-02
RMM:  12    -0.113120359755E+04   -0.37321E-05   -0.18721E-06  1294   0.371E-03    0.905E-03
RMM:  13    -0.113120360096E+04   -0.34074E-05   -0.62307E-07  1147   0.210E-03    0.769E-03
RMM:  14    -0.113120360323E+04   -0.22724E-05   -0.37835E-07  1124   0.158E-03    0.565E-03
RMM:  15    -0.113120360690E+04   -0.36694E-05   -0.23977E-07  1122   0.121E-03    0.284E-03
RMM:  16    -0.113120361070E+04   -0.37973E-05   -0.15462E-07  1107   0.878E-04    0.353E-03
RMM:  17    -0.113120361220E+04   -0.15031E-05   -0.11720E-07  1021   0.800E-04    0.243E-03
RMM:  18    -0.113120361444E+04   -0.22445E-05   -0.71029E-08   808   0.574E-04    0.135E-03
RMM:  19    -0.113120361660E+04   -0.21523E-05   -0.62194E-08   834   0.515E-04    0.161E-03
RMM:  20    -0.113120361799E+04   -0.13894E-05   -0.49325E-08   775   0.491E-04    0.892E-04
RMM:  21    -0.113120362064E+04   -0.26564E-05   -0.57219E-08   800   0.421E-04    0.104E-03
RMM:  22    -0.113120362145E+04   -0.80876E-06   -0.38088E-08   725   0.423E-04
  23 F= -.11386661E+04 E0= -.11386569E+04  d E =-.114613E-02  mag=    44.1003
       N       E                     dE             d eps       ncg     rms          rms(c)
DAV:   1    -0.113119972341E+04    0.38972E-02   -0.23022E+00  1944   0.338E+00    0.480E-01
RMM:   2    -0.113120520176E+04   -0.54784E-02   -0.53356E-02  2318   0.501E-01    0.619E-01
RMM:   3    -0.113120877884E+04   -0.35771E-02   -0.97615E-03  2245   0.228E-01    0.115E+00
RMM:   4    -0.113120595217E+04    0.28267E-02   -0.37879E-03  2418   0.127E-01    0.649E-01
RMM:   5    -0.113120541061E+04    0.54156E-03   -0.10986E-03  2245   0.631E-02    0.299E-01
RMM:   6    -0.113120598105E+04   -0.57044E-03   -0.60693E-04  2266   0.453E-02    0.501E-01
RMM:   7    -0.113120544445E+04    0.53660E-03   -0.32759E-04  2242   0.380E-02    0.121E-01
RMM:   8    -0.113120567914E+04   -0.23469E-03   -0.30962E-04  2229   0.385E-02    0.203E-01
RMM:   9    -0.113120567646E+04    0.26757E-05   -0.24285E-04  2186   0.336E-02    0.166E-01
RMM:  10    -0.113120563659E+04    0.39873E-04   -0.13292E-04  2121   0.257E-02    0.746E-02
RMM:  11    -0.113120567652E+04   -0.39929E-04   -0.47752E-05  1818   0.146E-02    0.106E-01
RMM:  12    -0.113120565890E+04    0.17623E-04   -0.20921E-05  1536   0.105E-02    0.549E-02
RMM:  13    -0.113120567345E+04   -0.14555E-04   -0.63098E-06  1416   0.564E-03    0.330E-02
RMM:  14    -0.113120568798E+04   -0.14533E-04   -0.43075E-06  1372   0.477E-03    0.225E-02
RMM:  15    -0.113120570747E+04   -0.19483E-04   -0.27080E-06  1342   0.401E-03    0.203E-02
RMM:  16    -0.113120572019E+04   -0.12724E-04   -0.14915E-06  1259   0.299E-03    0.184E-02
RMM:  17    -0.113120572813E+04   -0.79426E-05   -0.87967E-07  1187   0.239E-03    0.787E-03
RMM:  18    -0.113120574573E+04   -0.17595E-04   -0.50135E-07  1156   0.151E-03    0.594E-03
RMM:  19    -0.113120575540E+04   -0.96727E-05   -0.35658E-07  1092   0.130E-03    0.532E-03
RMM:  20    -0.113120576503E+04   -0.96281E-05   -0.29182E-07  1053   0.110E-03    0.289E-03
RMM:  21    -0.113120577780E+04   -0.12775E-04   -0.25864E-07  1026   0.829E-04    0.375E-03
RMM:  22    -0.113120578288E+04   -0.50802E-05   -0.18559E-07   913   0.807E-04    0.320E-03
RMM:  23    -0.113120579185E+04   -0.89652E-05   -0.19649E-07   893   0.655E-04    0.116E-03
RMM:  24    -0.113120579946E+04   -0.76108E-05   -0.17678E-07   911   0.645E-04    0.133E-03
RMM:  25    -0.113120580297E+04   -0.35139E-05   -0.13901E-07   859   0.571E-04    0.130E-03
RMM:  26    -0.113120580941E+04   -0.64345E-05   -0.15625E-07   885   0.540E-04    0.885E-04
RMM:  27    -0.113120581627E+04   -0.68606E-05   -0.18887E-07   942   0.576E-04    0.101E-03
RMM:  28    -0.113120582018E+04   -0.39066E-05   -0.16823E-07   893   0.582E-04    0.580E-04
RMM:  29    -0.113120582542E+04   -0.52468E-05   -0.23333E-07   937   0.560E-04    0.331E-04
RMM:  30    -0.113120582804E+04   -0.26195E-05   -0.18726E-07   906   0.592E-04    0.257E-04
RMM:  31    -0.113120582920E+04   -0.11582E-05   -0.14010E-07   809   0.492E-04    0.379E-04
RMM:  32    -0.113120583004E+04   -0.83839E-06   -0.10737E-07   777   0.483E-04
  24 F= -.11386681E+04 E0= -.11386590E+04  d E =-.317276E-02  mag=    44.0993
       N       E                     dE             d eps       ncg     rms          rms(c)
DAV:   1    -0.113120489620E+04    0.93300E-03   -0.46510E-01  2076   0.152E+00    0.216E-01
RMM:   2    -0.113120592916E+04   -0.10330E-02   -0.10757E-02  2318   0.225E-01    0.274E-01
RMM:   3    -0.113120673602E+04   -0.80685E-03   -0.19645E-03  2240   0.103E-01    0.580E-01
RMM:   4    -0.113120597393E+04    0.76208E-03   -0.78996E-04  2434   0.575E-02    0.232E-01
RMM:   5    -0.113120602188E+04   -0.47951E-04   -0.22597E-04  2128   0.310E-02    0.136E-01
RMM:   6    -0.113120613217E+04   -0.11029E-03   -0.12233E-04  2109   0.210E-02    0.232E-01
RMM:   7    -0.113120602764E+04    0.10453E-03   -0.69474E-05  1988   0.172E-02    0.867E-02
RMM:   8    -0.113120607861E+04   -0.50971E-04   -0.61505E-05  1920   0.174E-02    0.981E-02
RMM:   9    -0.113120607273E+04    0.58810E-05   -0.51809E-05  1935   0.161E-02    0.587E-02
RMM:  10    -0.113120607713E+04   -0.44042E-05   -0.24724E-05  1745   0.116E-02    0.320E-02
RMM:  11    -0.113120608089E+04   -0.37566E-05   -0.94500E-06  1428   0.687E-03    0.337E-02
RMM:  12    -0.113120608296E+04   -0.20737E-05   -0.36562E-06  1365   0.509E-03    0.122E-02
RMM:  13    -0.113120608681E+04   -0.38481E-05   -0.12723E-06  1231   0.285E-03    0.125E-02
RMM:  14    -0.113120608972E+04   -0.29132E-05   -0.72238E-07  1159   0.222E-03    0.620E-03
RMM:  15    -0.113120609488E+04   -0.51593E-05   -0.37189E-07  1131   0.152E-03    0.557E-03
RMM:  16    -0.113120609824E+04   -0.33610E-05   -0.28761E-07  1123   0.133E-03    0.578E-03
RMM:  17    -0.113120610162E+04   -0.33754E-05   -0.18307E-07  1072   0.103E-03    0.231E-03
RMM:  18    -0.113120610497E+04   -0.33513E-05   -0.11422E-07   945   0.686E-04    0.268E-03
RMM:  19    -0.113120610673E+04   -0.17601E-05   -0.86610E-08   844   0.681E-04    0.202E-03
RMM:  20    -0.113120610994E+04   -0.32054E-05   -0.72048E-08   849   0.521E-04    0.105E-03
RMM:  21    -0.113120611303E+04   -0.30923E-05   -0.73151E-08   878   0.506E-04    0.174E-03
RMM:  22    -0.113120611495E+04   -0.19240E-05   -0.59342E-08   784   0.480E-04    0.927E-04
RMM:  23    -0.113120611730E+04   -0.23466E-05   -0.54825E-08   722   0.396E-04    0.364E-04
RMM:  24    -0.113120611866E+04   -0.13614E-05   -0.46006E-08   702   0.392E-04    0.572E-04
RMM:  25    -0.113120611988E+04   -0.12175E-05   -0.40052E-08   658   0.368E-04    0.440E-04
RMM:  26    -0.113120612185E+04   -0.19749E-05   -0.57241E-08   719   0.381E-04    0.341E-04
RMM:  27    -0.113120612291E+04   -0.10587E-05   -0.50605E-08   721   0.392E-04    0.390E-04
RMM:  28    -0.113120612388E+04   -0.96941E-06   -0.48476E-08   675   0.371E-04
  25 F= -.11386683E+04 E0= -.11386592E+04  d E =-.338572E-02  mag=    44.0989
       N       E                     dE             d eps       ncg     rms          rms(c)
DAV:   1    -0.113120610147E+04    0.21442E-04   -0.35555E-01  2016   0.134E+00    0.188E-01
RMM:   2    -0.113120688230E+04   -0.78083E-03   -0.82006E-03  2294   0.193E-01    0.268E-01
RMM:   3    -0.113120746779E+04   -0.58549E-03   -0.14802E-03  2197   0.908E-02    0.541E-01
RMM:   4    -0.113120707003E+04    0.39776E-03   -0.70518E-04  2412   0.529E-02    0.398E-01
RMM:   5    -0.113120683582E+04    0.23420E-03   -0.22194E-04  2058   0.300E-02    0.129E-01
RMM:   6    -0.113120695193E+04   -0.11610E-03   -0.11517E-04  2063   0.222E-02    0.138E-01
RMM:   7    -0.113120692885E+04    0.23076E-04   -0.56394E-05  1983   0.161E-02    0.757E-02
RMM:   8    -0.113120694834E+04   -0.19489E-04   -0.44474E-05  1858   0.148E-02    0.815E-02
RMM:   9    -0.113120694508E+04    0.32555E-05   -0.38222E-05  1842   0.140E-02    0.505E-02
RMM:  10    -0.113120695077E+04   -0.56861E-05   -0.17397E-05  1730   0.975E-03    0.290E-02
RMM:  11    -0.113120695403E+04   -0.32605E-05   -0.73578E-06  1401   0.610E-03    0.322E-02
RMM:  12    -0.113120695425E+04   -0.22500E-06   -0.31670E-06  1354   0.470E-03
  26 F= -.11386696E+04 E0= -.11386605E+04  d E =-.125483E-02  mag=    44.0986
       N       E                     dE             d eps       ncg     rms          rms(c)
DAV:   1    -0.113120038706E+04    0.65670E-02   -0.31993E+00  1944   0.401E+00    0.565E-01
RMM:   2    -0.113120800543E+04   -0.76184E-02   -0.73892E-02  2297   0.580E-01    0.790E-01
RMM:   3    -0.113121347543E+04   -0.54700E-02   -0.13462E-02  2197   0.273E-01    0.168E+00
RMM:   4    -0.113121052849E+04    0.29469E-02   -0.65991E-03  2447   0.158E-01    0.125E+00
RMM:   5    -0.113120748045E+04    0.30480E-02   -0.23423E-03  2175   0.997E-02    0.274E-01
RMM:   6    -0.113120838915E+04   -0.90869E-03   -0.10014E-03  2265   0.622E-02    0.453E-01
RMM:   7    -0.113120797089E+04    0.41826E-03   -0.47432E-04  2291   0.444E-02    0.159E-01
RMM:   8    -0.113120811560E+04   -0.14471E-03   -0.39012E-04  2235   0.433E-02    0.173E-01
RMM:   9    -0.113120822932E+04   -0.11373E-03   -0.31146E-04  2215   0.377E-02    0.233E-01
RMM:  10    -0.113120811152E+04    0.11780E-03   -0.17722E-04  2168   0.300E-02    0.731E-02
RMM:  11    -0.113120816942E+04   -0.57899E-04   -0.55602E-05  1879   0.158E-02    0.944E-02
RMM:  12    -0.113120816181E+04    0.76126E-05   -0.27216E-05  1571   0.115E-02    0.559E-02
RMM:  13    -0.113120817935E+04   -0.17542E-04   -0.76929E-06  1438   0.633E-03    0.336E-02
RMM:  14    -0.113120819784E+04   -0.18488E-04   -0.45239E-06  1385   0.487E-03    0.241E-02
RMM:  15    -0.113120821828E+04   -0.20442E-04   -0.33888E-06  1360   0.438E-03    0.179E-02
RMM:  16    -0.113120824194E+04   -0.23652E-04   -0.14451E-06  1235   0.291E-03    0.175E-02
RMM:  17    -0.113120825464E+04   -0.12708E-04   -0.11834E-06  1201   0.248E-03    0.147E-02
RMM:  18    -0.113120826854E+04   -0.13891E-04   -0.88823E-07  1180   0.229E-03    0.607E-03
RMM:  19    -0.113120828477E+04   -0.16232E-04   -0.52201E-07  1153   0.139E-03    0.459E-03
RMM:  20    -0.113120829387E+04   -0.91069E-05   -0.37971E-07  1100   0.127E-03    0.445E-03
RMM:  21    -0.113120830998E+04   -0.16105E-04   -0.40412E-07  1049   0.104E-03    0.384E-03
RMM:  22    -0.113120832308E+04   -0.13106E-04   -0.35918E-07  1052   0.100E-03    0.360E-03
RMM:  23    -0.113120833037E+04   -0.72858E-05   -0.29181E-07   930   0.889E-04    0.176E-03
RMM:  24    -0.113120834174E+04   -0.11365E-04   -0.31925E-07   955   0.743E-04    0.109E-03
RMM:  25    -0.113120834848E+04   -0.67397E-05   -0.26147E-07   943   0.755E-04    0.191E-03
RMM:  26    -0.113120835560E+04   -0.71261E-05   -0.27349E-07   939   0.681E-04    0.162E-03
RMM:  27    -0.113120836456E+04   -0.89622E-05   -0.32895E-07   980   0.726E-04    0.130E-03
RMM:  28    -0.113120836856E+04   -0.39949E-05   -0.26545E-07   930   0.696E-04    0.105E-03
RMM:  29    -0.113120837381E+04   -0.52473E-05   -0.29054E-07   936   0.649E-04    0.484E-04
RMM:  30    -0.113120837786E+04   -0.40493E-05   -0.28447E-07   957   0.686E-04    0.333E-04
RMM:  31    -0.113120838002E+04   -0.21610E-05   -0.24297E-07   908   0.616E-04    0.423E-04
RMM:  32    -0.113120838084E+04   -0.82191E-06   -0.16673E-07   820   0.577E-04
  27 F= -.11386723E+04 E0= -.11386632E+04  d E =-.395766E-02  mag=    44.0978
       N       E                     dE             d eps       ncg     rms          rms(c)
DAV:   1    -0.113117401120E+04    0.34369E-01   -0.12798E+01  1944   0.802E+00    0.113E+00
RMM:   2    -0.113120528658E+04   -0.31275E-01   -0.29630E-01  2295   0.116E+00    0.154E+00
RMM:   3    -0.113122529844E+04   -0.20012E-01   -0.54144E-02  2203   0.549E-01    0.323E+00
RMM:   4    -0.113121739887E+04    0.78996E-02   -0.26442E-02  2466   0.310E-01    0.242E+00
RMM:   5    -0.113120382681E+04    0.13572E-01   -0.10033E-02  2177   0.210E-01    0.514E-01
RMM:   6    -0.113120591859E+04   -0.20918E-02   -0.36647E-03  2330   0.117E-01    0.710E-01
RMM:   7    -0.113120495590E+04    0.96270E-03   -0.16045E-03  2281   0.841E-02    0.338E-01
RMM:   8    -0.113120601411E+04   -0.10582E-02   -0.16164E-03  2215   0.845E-02    0.709E-01
RMM:   9    -0.113120514523E+04    0.86888E-03   -0.13879E-03  2204   0.807E-02    0.308E-01
RMM:  10    -0.113120530571E+04   -0.16048E-03   -0.70487E-04  2249   0.610E-02    0.196E-01
RMM:  11    -0.113120543180E+04   -0.12609E-03   -0.33917E-04  2214   0.369E-02    0.248E-01
RMM:  12    -0.113120537810E+04    0.53699E-04   -0.13146E-04  2061   0.255E-02    0.185E-01
RMM:  13    -0.113120537730E+04    0.80185E-06   -0.38600E-05  1780   0.131E-02    0.117E-01
RMM:  14    -0.113120541838E+04   -0.41073E-04   -0.25744E-05  1642   0.101E-02    0.593E-02
RMM:  15    -0.113120549115E+04   -0.72772E-04   -0.17710E-05  1594   0.925E-03    0.572E-02
RMM:  16    -0.113120552926E+04   -0.38113E-04   -0.93408E-06  1473   0.737E-03    0.415E-02
RMM:  17    -0.113120556488E+04   -0.35623E-04   -0.60291E-06  1408   0.552E-03    0.316E-02
RMM:  18    -0.113120561690E+04   -0.52015E-04   -0.37914E-06  1366   0.454E-03    0.166E-02
RMM:  19    -0.113120564860E+04   -0.31705E-04   -0.21170E-06  1283   0.321E-03    0.151E-02
RMM:  20    -0.113120567379E+04   -0.25190E-04   -0.12738E-06  1210   0.258E-03    0.816E-03
RMM:  21    -0.113120570444E+04   -0.30647E-04   -0.84855E-07  1175   0.172E-03    0.799E-03
RMM:  22    -0.113120572395E+04   -0.19510E-04   -0.72346E-07  1136   0.180E-03    0.697E-03
RMM:  23    -0.113120576263E+04   -0.38679E-04   -0.96569E-07  1160   0.144E-03    0.324E-03
RMM:  24    -0.113120579302E+04   -0.30388E-04   -0.78942E-07  1084   0.132E-03    0.294E-03
RMM:  25    -0.113120580523E+04   -0.12211E-04   -0.54387E-07  1025   0.118E-03    0.289E-03
RMM:  26    -0.113120582186E+04   -0.16633E-04   -0.52348E-07   987   0.998E-04    0.242E-03
RMM:  27    -0.113120585002E+04   -0.28162E-04   -0.84783E-07  1106   0.105E-03    0.200E-03
RMM:  28    -0.113120586414E+04   -0.14122E-04   -0.66325E-07  1032   0.108E-03    0.235E-03
RMM:  29    -0.113120587716E+04   -0.13020E-04   -0.62789E-07   994   0.960E-04    0.110E-03
RMM:  30    -0.113120588996E+04   -0.12794E-04   -0.68008E-07  1061   0.102E-03    0.589E-04
RMM:  31    -0.113120589848E+04   -0.85214E-05   -0.63423E-07  1015   0.919E-04    0.494E-04
RMM:  32    -0.113120590321E+04   -0.47279E-05   -0.49231E-07   984   0.916E-04    0.865E-04
RMM:  33    -0.113120590589E+04   -0.26873E-05   -0.37693E-07   923   0.765E-04    0.340E-04
RMM:  34    -0.113120590845E+04   -0.25564E-05   -0.31983E-07   915   0.731E-04    0.204E-04
RMM:  35    -0.113120590943E+04   -0.98138E-06   -0.23221E-07   869   0.642E-04
  28 F= -.11386723E+04 E0= -.11386634E+04  d E =-.405148E-02  mag=    44.0962
       N       E                     dE             d eps       ncg     rms          rms(c)
DAV:   1    -0.113120070714E+04    0.52013E-02   -0.29209E+00  1998   0.383E+00    0.539E-01
RMM:   2    -0.113120773180E+04   -0.70247E-02   -0.67324E-02  2295   0.555E-01    0.752E-01
RMM:   3    -0.113121266499E+04   -0.49332E-02   -0.12149E-02  2200   0.263E-01    0.161E+00
RMM:   4    -0.113120873688E+04    0.39281E-02   -0.57351E-03  2435   0.150E-01    0.980E-01
RMM:   5    -0.113120756518E+04    0.11717E-02   -0.16901E-03  2190   0.841E-02    0.434E-01
RMM:   6    -0.113120792449E+04   -0.35930E-03   -0.92556E-04  2251   0.593E-02    0.400E-01
RMM:   7    -0.113120782647E+04    0.98020E-04   -0.50102E-04  2246   0.477E-02    0.282E-01
RMM:   8    -0.113120780966E+04    0.16805E-04   -0.35452E-04  2185   0.418E-02    0.222E-01
RMM:   9    -0.113120782415E+04   -0.14491E-04   -0.31902E-04  2186   0.395E-02    0.158E-01
RMM:  10    -0.113120781395E+04    0.10205E-04   -0.15197E-04  2262   0.275E-02    0.102E-01
RMM:  11    -0.113120784095E+04   -0.27002E-04   -0.73495E-05  1933   0.182E-02    0.127E-01
RMM:  12    -0.113120781905E+04    0.21903E-04   -0.30157E-05  1670   0.127E-02    0.807E-02
RMM:  13    -0.113120783564E+04   -0.16590E-04   -0.10659E-05  1497   0.719E-03    0.547E-02
RMM:  14    -0.113120784746E+04   -0.11821E-04   -0.64725E-06  1415   0.601E-03    0.324E-02
RMM:  15    -0.113120786774E+04   -0.20280E-04   -0.32607E-06  1346   0.422E-03    0.136E-02
RMM:  16    -0.113120788346E+04   -0.15722E-04   -0.22261E-06  1317   0.355E-03    0.174E-02
RMM:  17    -0.113120789258E+04   -0.91215E-05   -0.11851E-06  1215   0.280E-03    0.127E-02
RMM:  18    -0.113120790341E+04   -0.10827E-04   -0.62053E-07  1155   0.190E-03    0.968E-03
RMM:  19    -0.113120790861E+04   -0.52037E-05   -0.43675E-07  1125   0.162E-03    0.670E-03
RMM:  20    -0.113120791760E+04   -0.89897E-05   -0.29237E-07  1082   0.109E-03    0.241E-03
RMM:  21    -0.113120792759E+04   -0.99918E-05   -0.25956E-07  1044   0.867E-04    0.300E-03
RMM:  22    -0.113120793248E+04   -0.48869E-05   -0.21790E-07   975   0.915E-04    0.312E-03
RMM:  23    -0.113120793877E+04   -0.62834E-05   -0.19237E-07   925   0.720E-04    0.213E-03
RMM:  24    -0.113120794476E+04   -0.59933E-05   -0.18371E-07   927   0.641E-04    0.118E-03
RMM:  25    -0.113120794708E+04   -0.23168E-05   -0.13347E-07   840   0.597E-04    0.116E-03
RMM:  26    -0.113120795088E+04   -0.37999E-05   -0.14130E-07   873   0.532E-04    0.845E-04
RMM:  27    -0.113120795558E+04   -0.47012E-05   -0.17511E-07   948   0.579E-04    0.647E-04
RMM:  28    -0.113120795796E+04   -0.23850E-05   -0.15445E-07   896   0.569E-04    0.849E-04
RMM:  29    -0.113120795945E+04   -0.14840E-05   -0.13134E-07   837   0.527E-04    0.490E-04
RMM:  30    -0.113120796109E+04   -0.16458E-05   -0.14055E-07   880   0.511E-04    0.548E-04
RMM:  31    -0.113120796193E+04   -0.84353E-06   -0.12360E-07   860   0.508E-04
  29 F= -.11386732E+04 E0= -.11386642E+04  d E =-.487691E-02  mag=    44.0970
       N       E                     dE             d eps       ncg     rms          rms(c)
DAV:   1    -0.113120490165E+04    0.30594E-02   -0.17215E+00  1974   0.297E+00    0.428E-01
RMM:   2    -0.113120894616E+04   -0.40445E-02   -0.41221E-02  2294   0.430E-01    0.707E-01
RMM:   3    -0.113121050949E+04   -0.15633E-02   -0.74013E-03  2191   0.205E-01    0.973E-01
RMM:   4    -0.113120984934E+04    0.66015E-03   -0.34500E-03  2423   0.119E-01    0.897E-01
RMM:   5    -0.113120840678E+04    0.14426E-02   -0.11842E-03  2175   0.662E-02    0.331E-01
RMM:   6    -0.113120876573E+04   -0.35894E-03   -0.59830E-04  2265   0.482E-02    0.368E-01
RMM:   7    -0.113120852784E+04    0.23788E-03   -0.34575E-04  2198   0.399E-02    0.138E-01
RMM:   8    -0.113120863679E+04   -0.10894E-03   -0.23875E-04  2238   0.342E-02    0.175E-01
RMM:   9    -0.113120862602E+04    0.10772E-04   -0.17407E-04  2196   0.283E-02    0.138E-01
RMM:  10    -0.113120861759E+04    0.84216E-05   -0.95836E-05  2154   0.224E-02    0.599E-02
RMM:  11    -0.113120865396E+04   -0.36365E-04   -0.42058E-05  1818   0.139E-02    0.926E-02
RMM:  12    -0.113120863679E+04    0.17172E-04   -0.19032E-05  1506   0.102E-02    0.417E-02
RMM:  13    -0.113120864822E+04   -0.11429E-04   -0.53429E-06  1409   0.531E-03    0.289E-02
RMM:  14    -0.113120865448E+04   -0.62596E-05   -0.33440E-06  1349   0.437E-03    0.174E-02
RMM:  15    -0.113120866538E+04   -0.10908E-04   -0.18413E-06  1290   0.331E-03    0.118E-02
RMM:  16    -0.113120867565E+04   -0.10268E-04   -0.13079E-06  1242   0.278E-03    0.164E-02
RMM:  17    -0.113120867991E+04   -0.42586E-05   -0.81118E-07  1166   0.238E-03    0.860E-03
RMM:  18    -0.113120868776E+04   -0.78500E-05   -0.39770E-07  1150   0.140E-03    0.433E-03
RMM:  19    -0.113120869224E+04   -0.44809E-05   -0.29619E-07  1109   0.126E-03    0.455E-03
RMM:  20    -0.113120869853E+04   -0.62930E-05   -0.22618E-07  1030   0.959E-04    0.194E-03
RMM:  21    -0.113120870607E+04   -0.75396E-05   -0.21258E-07  1034   0.812E-04    0.373E-03
RMM:  22    -0.113120871030E+04   -0.42287E-05   -0.17994E-07   917   0.822E-04    0.297E-03
RMM:  23    -0.113120871581E+04   -0.55064E-05   -0.16975E-07   898   0.615E-04    0.101E-03
RMM:  24    -0.113120871978E+04   -0.39687E-05   -0.14081E-07   880   0.590E-04    0.110E-03
RMM:  25    -0.113120872192E+04   -0.21456E-05   -0.11230E-07   827   0.525E-04    0.129E-03
RMM:  26    -0.113120872529E+04   -0.33698E-05   -0.11763E-07   867   0.502E-04    0.927E-04
RMM:  27    -0.113120872966E+04   -0.43687E-05   -0.15574E-07   916   0.515E-04    0.581E-04
RMM:  28    -0.113120873135E+04   -0.16925E-05   -0.11469E-07   833   0.525E-04    0.602E-04
RMM:  29    -0.113120873345E+04   -0.20930E-05   -0.11995E-07   820   0.454E-04    0.290E-04
RMM:  30    -0.113120873540E+04   -0.19515E-05   -0.11592E-07   852   0.494E-04    0.219E-04
RMM:  31    -0.113120873657E+04   -0.11679E-05   -0.10864E-07   814   0.450E-04    0.311E-04
RMM:  32    -0.113120873709E+04   -0.52507E-06   -0.77104E-08   746   0.441E-04
  30 F= -.11386756E+04 E0= -.11386666E+04  d E =-.242234E-02  mag=    44.0959
       N       E                     dE             d eps       ncg     rms          rms(c)
DAV:   1    -0.113119386157E+04    0.14875E-01   -0.60662E+00  1944   0.557E+00    0.805E-01
RMM:   2    -0.113120844024E+04   -0.14579E-01   -0.14537E-01  2288   0.808E-01    0.131E+00
RMM:   3    -0.113121367427E+04   -0.52340E-02   -0.26338E-02  2193   0.388E-01    0.172E+00
RMM:   4    -0.113121385504E+04   -0.18077E-03   -0.12660E-02  2444   0.219E-01    0.187E+00
RMM:   5    -0.113120644171E+04    0.74133E-02   -0.47516E-03  2189   0.134E-01    0.530E-01
RMM:   6    -0.113120767348E+04   -0.12318E-02   -0.20196E-03  2336   0.833E-02    0.687E-01
RMM:   7    -0.113120679876E+04    0.87472E-03   -0.11080E-03  2233   0.699E-02    0.251E-01
RMM:   8    -0.113120717533E+04   -0.37657E-03   -0.82312E-04  2236   0.640E-02    0.399E-01
RMM:   9    -0.113120703305E+04    0.14229E-03   -0.64539E-04  2242   0.556E-02    0.253E-01
RMM:  10    -0.113120704189E+04   -0.88434E-05   -0.36932E-04  2266   0.431E-02    0.150E-01
RMM:  11    -0.113120716869E+04   -0.12680E-03   -0.19884E-04  2177   0.291E-02    0.220E-01
RMM:  12    -0.113120708075E+04    0.87933E-04   -0.82080E-05  1918   0.205E-02    0.127E-01
RMM:  13    -0.113120710522E+04   -0.24471E-04   -0.24243E-05  1678   0.102E-02    0.700E-02
RMM:  14    -0.113120713181E+04   -0.26585E-04   -0.16850E-05  1518   0.909E-03    0.341E-02
[...]
RMM:   4    -0.113208053395E+04    0.51847E-02   -0.24352E-03  2344   0.991E-02    0.559E-01
RMM:   5    -0.113208214580E+04   -0.16118E-02   -0.86696E-04  2093   0.668E-02    0.300E-01
RMM:   6    -0.113208260947E+04   -0.46367E-03   -0.28444E-04  2132   0.390E-02    0.156E-01
RMM:   7    -0.113208272091E+04   -0.11144E-03   -0.10206E-04  2192   0.241E-02    0.175E-01
RMM:   8    -0.113208271026E+04    0.10645E-04   -0.86429E-05  2011   0.205E-02    0.142E-01
RMM:   9    -0.113208277753E+04   -0.67265E-04   -0.81742E-05  2080   0.194E-02    0.229E-01
RMM:  10    -0.113208274291E+04    0.34616E-04   -0.67265E-05  1852   0.197E-02    0.300E-01
RMM:  11    -0.113208263400E+04    0.10892E-03   -0.26793E-05  1718   0.120E-02    0.208E-01
RMM:  12    -0.113208266008E+04   -0.26082E-04   -0.90453E-06  1445   0.709E-03    0.926E-02
RMM:  13    -0.113208272817E+04   -0.68089E-04   -0.86544E-06  1469   0.675E-03    0.248E-02
RMM:  14    -0.113208276352E+04   -0.35352E-04   -0.59014E-06  1423   0.613E-03    0.294E-02
RMM:  15    -0.113208277131E+04   -0.77930E-05   -0.24614E-06  1259   0.405E-03    0.261E-02
RMM:  16    -0.113208277245E+04   -0.11394E-05   -0.92576E-07  1167   0.276E-03    0.170E-02
RMM:  17    -0.113208277667E+04   -0.42217E-05   -0.40762E-07  1129   0.176E-03    0.820E-03
RMM:  18    -0.113208278055E+04   -0.38810E-05   -0.25856E-07  1103   0.123E-03    0.672E-03
RMM:  19    -0.113208278332E+04   -0.27647E-05   -0.17548E-07  1003   0.984E-04    0.460E-03
RMM:  20    -0.113208278530E+04   -0.19769E-05   -0.10232E-07   941   0.687E-04    0.333E-03
RMM:  21    -0.113208278727E+04   -0.19750E-05   -0.72622E-08   802   0.575E-04    0.256E-03
RMM:  22    -0.113208278892E+04   -0.16483E-05   -0.58302E-08   781   0.511E-04    0.230E-03
RMM:  23    -0.113208279097E+04   -0.20553E-05   -0.57259E-08   812   0.483E-04    0.125E-03
RMM:  24    -0.113208279288E+04   -0.19062E-05   -0.54117E-08   813   0.430E-04    0.108E-03
RMM:  25    -0.113208279378E+04   -0.89960E-06   -0.39104E-08   732   0.418E-04
 210 F= -.11398601E+04 E0= -.11398415E+04  d E =-.952215E-03  mag=    44.4030
       N       E                     dE             d eps       ncg     rms          rms(c)
DAV:   1    -0.113208284809E+04   -0.55214E-04   -0.12967E-01  2040   0.811E-01    0.113E-01
RMM:   2    -0.113208314362E+04   -0.29553E-03   -0.28395E-03  2121   0.123E-01    0.160E-01
RMM:   3    -0.113208370461E+04   -0.56099E-03   -0.55224E-04  2105   0.578E-02    0.853E-01
RMM:   4    -0.113208268644E+04    0.10182E-02   -0.49008E-04  2294   0.463E-02    0.233E-01
RMM:   5    -0.113208302284E+04   -0.33640E-03   -0.16473E-04  2006   0.308E-02    0.528E-02
RMM:   6    -0.113208317740E+04   -0.15456E-03   -0.46348E-05  1902   0.155E-02    0.100E-01
RMM:   7    -0.113208318818E+04   -0.10773E-04   -0.22980E-05  1663   0.109E-02    0.127E-01
RMM:   8    -0.113208316106E+04    0.27113E-04   -0.15334E-05  1547   0.912E-03    0.891E-02
RMM:   9    -0.113208317159E+04   -0.10529E-04   -0.14662E-05  1528   0.863E-03    0.370E-02
RMM:  10    -0.113208320086E+04   -0.29273E-04   -0.11912E-05  1567   0.816E-03    0.122E-01
RMM:  11    -0.113208317718E+04    0.23682E-04   -0.10267E-05  1503   0.803E-03    0.131E-01
RMM:  12    -0.113208315872E+04    0.18458E-04   -0.32824E-06  1341   0.481E-03    0.869E-02
RMM:  13    -0.113208317037E+04   -0.11650E-04   -0.16323E-06  1207   0.313E-03    0.387E-02
RMM:  14    -0.113208318795E+04   -0.17580E-04   -0.16069E-06  1192   0.320E-03    0.697E-03
RMM:  15    -0.113208319838E+04   -0.10430E-04   -0.98461E-07  1157   0.250E-03    0.787E-03
RMM:  16    -0.113208320105E+04   -0.26689E-05   -0.46265E-07  1131   0.192E-03    0.763E-03
RMM:  17    -0.113208320243E+04   -0.13805E-05   -0.19604E-07  1090   0.126E-03    0.491E-03
RMM:  18    -0.113208320391E+04   -0.14725E-05   -0.99800E-08  1015   0.856E-04    0.405E-03
RMM:  19    -0.113208320502E+04   -0.11181E-05   -0.57612E-08   897   0.592E-04    0.372E-03
RMM:  20    -0.113208320588E+04   -0.85438E-06   -0.35620E-08   750   0.472E-04
 211 F= -.11398606E+04 E0= -.11398420E+04  d E =-.536769E-03  mag=    44.4031
       N       E                     dE             d eps       ncg     rms          rms(c)
DAV:   1    -0.113208227286E+04    0.93216E-03   -0.45115E-01  1962   0.151E+00    0.210E-01
RMM:   2    -0.113208331060E+04   -0.10377E-02   -0.99042E-03  2122   0.229E-01    0.212E-01
RMM:   3    -0.113208478344E+04   -0.14728E-02   -0.18002E-03  2103   0.108E-01    0.126E+00
RMM:   4    -0.113208259710E+04    0.21863E-02   -0.12163E-03  2428   0.703E-02    0.320E-01
RMM:   5    -0.113208331571E+04   -0.71861E-03   -0.55060E-04  2073   0.554E-02    0.918E-02
RMM:   6    -0.113208348662E+04   -0.17091E-03   -0.12140E-04  2197   0.232E-02    0.154E-01
RMM:   7    -0.113208346475E+04    0.21875E-04   -0.53955E-05  1886   0.163E-02    0.168E-01
RMM:   8    -0.113208344256E+04    0.22183E-04   -0.50982E-05  1834   0.156E-02    0.104E-01
RMM:   9    -0.113208347504E+04   -0.32473E-04   -0.53733E-05  1853   0.159E-02    0.844E-02
RMM:  10    -0.113208349033E+04   -0.15296E-04   -0.35574E-05  1877   0.139E-02    0.135E-01
RMM:  11    -0.113208346086E+04    0.29474E-04   -0.16917E-05  1550   0.996E-03    0.134E-01
RMM:  12    -0.113208344874E+04    0.12113E-04   -0.54871E-06  1407   0.564E-03    0.581E-02
RMM:  13    -0.113208347240E+04   -0.23657E-04   -0.37749E-06  1372   0.481E-03    0.195E-02
RMM:  14    -0.113208349036E+04   -0.17958E-04   -0.22919E-06  1270   0.386E-03    0.223E-02
RMM:  15    -0.113208349533E+04   -0.49700E-05   -0.12423E-06  1176   0.302E-03    0.204E-02
RMM:  16    -0.113208349743E+04   -0.21036E-05   -0.56137E-07  1131   0.213E-03    0.852E-03
RMM:  17    -0.113208350208E+04   -0.46517E-05   -0.29159E-07  1120   0.139E-03    0.522E-03
RMM:  18    -0.113208350598E+04   -0.38964E-05   -0.19848E-07  1054   0.104E-03    0.588E-03
RMM:  19    -0.113208350841E+04   -0.24266E-05   -0.12776E-07   993   0.776E-04    0.351E-03
RMM:  20    -0.113208351028E+04   -0.18717E-05   -0.84989E-08   858   0.654E-04    0.139E-03
RMM:  21    -0.113208351324E+04   -0.29597E-05   -0.78197E-08   908   0.509E-04    0.283E-03
RMM:  22    -0.113208351512E+04   -0.18827E-05   -0.66528E-08   867   0.509E-04    0.296E-03
RMM:  23    -0.113208351670E+04   -0.15787E-05   -0.56056E-08   762   0.464E-04    0.149E-03
RMM:  24    -0.113208351854E+04   -0.18440E-05   -0.53829E-08   748   0.413E-04    0.608E-04
RMM:  25    -0.113208351933E+04   -0.78839E-06   -0.41348E-08   722   0.403E-04
 212 F= -.11398611E+04 E0= -.11398425E+04  d E =-.108278E-02  mag=    44.4029
       N       E                     dE             d eps       ncg     rms          rms(c)
DAV:   1    -0.113208325273E+04    0.26582E-03   -0.80575E-02  2088   0.640E-01    0.889E-02
RMM:   2    -0.113208343244E+04   -0.17972E-03   -0.17632E-03  2118   0.967E-02    0.125E-01
RMM:   3    -0.113208377869E+04   -0.34625E-03   -0.34448E-04  2100   0.459E-02    0.665E-01
RMM:   4    -0.113208313372E+04    0.64497E-03   -0.30151E-04  2268   0.365E-02    0.181E-01
RMM:   5    -0.113208335430E+04   -0.22058E-03   -0.10158E-04  1920   0.243E-02    0.412E-02
RMM:   6    -0.113208345423E+04   -0.99928E-04   -0.27840E-05  1814   0.121E-02    0.735E-02
RMM:   7    -0.113208346013E+04   -0.59025E-05   -0.13615E-05  1548   0.891E-03    0.945E-02
RMM:   8    -0.113208344637E+04    0.13758E-04   -0.96009E-06  1448   0.716E-03    0.712E-02
RMM:   9    -0.113208345230E+04   -0.59337E-05   -0.87971E-06  1448   0.693E-03    0.296E-02
RMM:  10    -0.113208347085E+04   -0.18550E-04   -0.76551E-06  1452   0.658E-03    0.925E-02
RMM:  11    -0.113208345563E+04    0.15221E-04   -0.64438E-06  1437   0.639E-03    0.106E-01
RMM:  12    -0.113208344170E+04    0.13936E-04   -0.21844E-06  1222   0.397E-03    0.710E-02
RMM:  13    -0.113208344943E+04   -0.77372E-05   -0.11192E-06  1156   0.273E-03    0.367E-02
RMM:  14    -0.113208346131E+04   -0.11875E-04   -0.99846E-07  1155   0.253E-03    0.569E-03
RMM:  15    -0.113208346990E+04   -0.85900E-05   -0.70742E-07  1143   0.211E-03    0.704E-03
RMM:  16    -0.113208347201E+04   -0.21113E-05   -0.33353E-07  1113   0.162E-03    0.755E-03
RMM:  17    -0.113208347291E+04   -0.89848E-06   -0.14438E-07  1047   0.108E-03
 213 F= -.11398612E+04 E0= -.11398426E+04  d E =-.113468E-02  mag=    44.4029
       N       E                     dE             d eps       ncg     rms          rms(c)
DAV:   1    -0.113208329157E+04    0.18044E-03   -0.21238E-01  1950   0.105E+00    0.141E-01
RMM:   2    -0.113208376988E+04   -0.47831E-03   -0.47130E-03  2144   0.158E-01    0.135E-01
RMM:   3    -0.113208417458E+04   -0.40471E-03   -0.80931E-04  2138   0.735E-02    0.428E-01
RMM:   4    -0.113208383047E+04    0.34411E-03   -0.36270E-04  2397   0.426E-02    0.247E-01
RMM:   5    -0.113208380466E+04    0.25813E-04   -0.13087E-04  1990   0.277E-02    0.524E-02
RMM:   6    -0.113208385774E+04   -0.53083E-04   -0.37813E-05  1949   0.130E-02    0.108E-01
RMM:   7    -0.113208384463E+04    0.13111E-04   -0.18863E-05  1606   0.872E-03    0.110E-01
RMM:   8    -0.113208384233E+04    0.22991E-05   -0.22921E-05  1657   0.110E-02    0.539E-02
RMM:   9    -0.113208386758E+04   -0.25244E-04   -0.25626E-05  1756   0.110E-02    0.612E-02
RMM:  10    -0.113208386685E+04    0.72890E-06   -0.16264E-05  1579   0.926E-03    0.670E-02
RMM:  11    -0.113208386023E+04    0.66239E-05   -0.73541E-06  1402   0.650E-03    0.479E-02
RMM:  12    -0.113208386301E+04   -0.27877E-05   -0.28199E-06  1324   0.434E-03    0.136E-02
RMM:  13    -0.113208387093E+04   -0.79163E-05   -0.14844E-06  1250   0.312E-03    0.174E-02
RMM:  14    -0.113208387270E+04   -0.17731E-05   -0.68480E-07  1134   0.237E-03    0.115E-02
RMM:  15    -0.113208387463E+04   -0.19298E-05   -0.27996E-07  1123   0.141E-03    0.907E-03
RMM:  16    -0.113208387619E+04   -0.15565E-05   -0.16906E-07  1110   0.106E-03    0.530E-03
RMM:  17    -0.113208387844E+04   -0.22558E-05   -0.11054E-07  1069   0.792E-04    0.226E-03
RMM:  18    -0.113208388005E+04   -0.16108E-05   -0.75411E-08   904   0.652E-04    0.370E-03
RMM:  19    -0.113208388107E+04   -0.10136E-05   -0.54703E-08   860   0.563E-04    0.259E-03
RMM:  20    -0.113208388185E+04   -0.78592E-06   -0.32814E-08   712   0.451E-04
 214 F= -.11398618E+04 E0= -.11398432E+04  d E =-.609443E-03  mag=    44.4031
       N       E                     dE             d eps       ncg     rms          rms(c)
DAV:   1    -0.113207905417E+04    0.48269E-02   -0.19113E+00  1944   0.314E+00    0.423E-01
RMM:   2    -0.113208370808E+04   -0.46539E-02   -0.42487E-02  2147   0.474E-01    0.504E-01
RMM:   3    -0.113208982477E+04   -0.61167E-02   -0.79033E-03  2136   0.226E-01    0.247E+00
RMM:   4    -0.113208230721E+04    0.75176E-02   -0.50217E-03  2459   0.146E-01    0.882E-01
RMM:   5    -0.113208408414E+04   -0.17769E-02   -0.23780E-03  2120   0.109E-01    0.535E-01
RMM:   6    -0.113208406044E+04    0.23695E-04   -0.70387E-04  2221   0.593E-02    0.224E-01
RMM:   7    -0.113208421668E+04   -0.15624E-03   -0.25801E-04  2239   0.352E-02    0.208E-01
RMM:   8    -0.113208418344E+04    0.33240E-04   -0.16279E-04  2173   0.276E-02    0.149E-01
RMM:   9    -0.113208432056E+04   -0.13712E-03   -0.23426E-04  2184   0.314E-02    0.201E-01
RMM:  10    -0.113208428027E+04    0.40292E-04   -0.15222E-04  2136   0.284E-02    0.202E-01
RMM:  11    -0.113208422473E+04    0.55538E-04   -0.71125E-05  1869   0.189E-02    0.154E-01
RMM:  12    -0.113208422955E+04   -0.48218E-05   -0.19994E-05  1640   0.968E-03    0.379E-02
RMM:  13    -0.113208427782E+04   -0.48269E-04   -0.14779E-05  1523   0.932E-03    0.715E-02
RMM:  14    -0.113208428160E+04   -0.37801E-05   -0.58549E-06  1419   0.618E-03    0.500E-02
RMM:  15    -0.113208428795E+04   -0.63504E-05   -0.21722E-06  1309   0.381E-03    0.247E-02
RMM:  16    -0.113208430201E+04   -0.14058E-04   -0.13237E-06  1230   0.286E-03    0.151E-02
RMM:  17    -0.113208431559E+04   -0.13583E-04   -0.10086E-06  1179   0.248E-03    0.233E-02
RMM:  18    -0.113208432011E+04   -0.45208E-05   -0.57943E-07  1150   0.192E-03    0.171E-02
RMM:  19    -0.113208432509E+04   -0.49792E-05   -0.32818E-07  1090   0.136E-03    0.608E-03
RMM:  20    -0.113208433097E+04   -0.58766E-05   -0.23140E-07  1012   0.107E-03    0.392E-03
RMM:  21    -0.113208433613E+04   -0.51656E-05   -0.16820E-07  1015   0.812E-04    0.303E-03
RMM:  22    -0.113208433907E+04   -0.29310E-05   -0.11864E-07   911   0.733E-04    0.272E-03
RMM:  23    -0.113208434505E+04   -0.59806E-05   -0.12238E-07   864   0.585E-04    0.198E-03
RMM:  24    -0.113208434917E+04   -0.41189E-05   -0.10559E-07   848   0.579E-04    0.202E-03
RMM:  25    -0.113208435184E+04   -0.26766E-05   -0.88110E-08   792   0.512E-04    0.103E-03
RMM:  26    -0.113208435509E+04   -0.32467E-05   -0.82263E-08   781   0.454E-04    0.677E-04
RMM:  27    -0.113208435679E+04   -0.17023E-05   -0.64344E-08   740   0.436E-04    0.739E-04
RMM:  28    -0.113208436022E+04   -0.34243E-05   -0.87954E-08   801   0.426E-04    0.648E-04
RMM:  29    -0.113208436314E+04   -0.29223E-05   -0.93680E-08   839   0.469E-04    0.709E-04
RMM:  30    -0.113208436450E+04   -0.13635E-05   -0.75338E-08   771   0.431E-04    0.654E-04
RMM:  31    -0.113208436619E+04   -0.16896E-05   -0.76430E-08   760   0.419E-04    0.385E-04
RMM:  32    -0.113208436752E+04   -0.13250E-05   -0.76046E-08   768   0.421E-04    0.277E-04
RMM:  33    -0.113208436808E+04   -0.56173E-06   -0.56548E-08   693   0.401E-04
 215 F= -.11398629E+04 E0= -.11398443E+04  d E =-.169695E-02  mag=    44.4040
       N       E                     dE             d eps       ncg     rms          rms(c)
DAV:   1    -0.113208309544E+04    0.12721E-02   -0.40064E-01  2028   0.144E+00    0.194E-01
RMM:   2    -0.113208403023E+04   -0.93478E-03   -0.89004E-03  2147   0.217E-01    0.218E-01
RMM:   3    -0.113208520041E+04   -0.11702E-02   -0.16337E-03  2137   0.103E-01    0.103E+00
RMM:   4    -0.113208372560E+04    0.14748E-02   -0.96962E-04  2450   0.656E-02    0.387E-01
RMM:   5    -0.113208411239E+04   -0.38679E-03   -0.47463E-04  2066   0.502E-02    0.212E-01
RMM:   6    -0.113208412699E+04   -0.14600E-04   -0.11773E-04  2032   0.238E-02    0.110E-01
RMM:   7    -0.113208415757E+04   -0.30582E-04   -0.50144E-05  2011   0.159E-02    0.831E-02
RMM:   8    -0.113208416087E+04   -0.32998E-05   -0.33898E-05  1791   0.129E-02    0.704E-02
RMM:   9    -0.113208419063E+04   -0.29759E-04   -0.49533E-05  1916   0.146E-02    0.872E-02
RMM:  10    -0.113208418100E+04    0.96366E-05   -0.30777E-05  1789   0.128E-02    0.727E-02
RMM:  11    -0.113208417335E+04    0.76466E-05   -0.13207E-05  1498   0.831E-03    0.487E-02
RMM:  12    -0.113208417885E+04   -0.54979E-05   -0.37460E-06  1361   0.478E-03    0.173E-02
RMM:  13    -0.113208418718E+04   -0.83381E-05   -0.24250E-06  1330   0.403E-03    0.277E-02
RMM:  14    -0.113208418784E+04   -0.65816E-06   -0.86584E-07  1154   0.261E-03
 216 F= -.11398630E+04 E0= -.11398444E+04  d E =-.179192E-02  mag=    44.4043
       N       E                     dE             d eps       ncg     rms          rms(c)
DAV:   1    -0.113208413292E+04    0.54268E-04   -0.20071E-01  1974   0.102E+00    0.134E-01
RMM:   2    -0.113208459565E+04   -0.46273E-03   -0.44104E-03  2120   0.153E-01    0.188E-01
RMM:   3    -0.113208536299E+04   -0.76734E-03   -0.82650E-04  2120   0.716E-02    0.978E-01
RMM:   4    -0.113208408047E+04    0.12825E-02   -0.66163E-04  2364   0.533E-02    0.272E-01
RMM:   5    -0.113208449587E+04   -0.41540E-03   -0.24694E-04  2046   0.368E-02    0.105E-01
RMM:   6    -0.113208464395E+04   -0.14809E-03   -0.57025E-05  1937   0.162E-02    0.113E-01
RMM:   7    -0.113208465208E+04   -0.81289E-05   -0.29018E-05  1819   0.129E-02    0.973E-02
RMM:   8    -0.113208464860E+04    0.34869E-05   -0.19242E-05  1645   0.997E-03    0.767E-02
RMM:   9    -0.113208467452E+04   -0.25920E-04   -0.19636E-05  1769   0.949E-03    0.109E-01
RMM:  10    -0.113208467397E+04    0.54319E-06   -0.18062E-05  1565   0.106E-02    0.164E-01
RMM:  11    -0.113208463636E+04    0.37616E-04   -0.85425E-06  1467   0.731E-03    0.117E-01
RMM:  12    -0.113208464388E+04   -0.75261E-05   -0.28769E-06  1301   0.438E-03    0.614E-02
RMM:  13    -0.113208466626E+04   -0.22379E-04   -0.24374E-06  1281   0.371E-03    0.202E-02
RMM:  14    -0.113208468273E+04   -0.16469E-04   -0.19632E-06  1232   0.364E-03    0.121E-02
RMM:  15    -0.113208468886E+04   -0.61288E-05   -0.94525E-07  1150   0.256E-03    0.137E-02
RMM:  16    -0.113208469000E+04   -0.11336E-05   -0.41874E-07  1122   0.189E-03    0.661E-03
RMM:  17    -0.113208469306E+04   -0.30654E-05   -0.16704E-07  1086   0.106E-03    0.330E-03
RMM:  18    -0.113208469471E+04   -0.16493E-05   -0.10425E-07  1003   0.786E-04    0.248E-03
RMM:  19    -0.113208469634E+04   -0.16349E-05   -0.63770E-08   809   0.570E-04    0.127E-03
RMM:  20    -0.113208469746E+04   -0.11176E-05   -0.40215E-08   732   0.449E-04    0.143E-03
RMM:  21    -0.113208469835E+04   -0.88860E-06   -0.29648E-08   685   0.415E-04
 217 F= -.11398636E+04 E0= -.11398450E+04  d E =-.611837E-03  mag=    44.4048
       N       E                     dE             d eps       ncg     rms          rms(c)
DAV:   1    -0.113208059981E+04    0.40976E-02   -0.18061E+00  1944   0.306E+00    0.401E-01
RMM:   2    -0.113208494769E+04   -0.43479E-02   -0.39646E-02  2123   0.458E-01    0.533E-01
RMM:   3    -0.113209168070E+04   -0.67330E-02   -0.73385E-03  2126   0.214E-01    0.294E+00
RMM:   4    -0.113208169863E+04    0.99821E-02   -0.57225E-03  2398   0.154E-01    0.809E-01
RMM:   5    -0.113208467472E+04   -0.29761E-02   -0.22912E-03  2128   0.110E-01    0.456E-01
RMM:   6    -0.113208525104E+04   -0.57633E-03   -0.59700E-04  2242   0.527E-02    0.257E-01
RMM:   7    -0.113208545056E+04   -0.19951E-03   -0.25374E-04  2179   0.368E-02    0.268E-01
RMM:   8    -0.113208536700E+04    0.83559E-04   -0.15787E-04  2168   0.266E-02    0.190E-01
RMM:   9    -0.113208553777E+04   -0.17077E-03   -0.17933E-04  2155   0.282E-02    0.302E-01
RMM:  10    -0.113208550478E+04    0.32989E-04   -0.14394E-04  2071   0.294E-02    0.424E-01
RMM:  11    -0.113208530418E+04    0.20060E-03   -0.67978E-05  1875   0.190E-02    0.306E-01
RMM:  12    -0.113208531698E+04   -0.12792E-04   -0.21860E-05  1600   0.103E-02    0.122E-01
RMM:  13    -0.113208543929E+04   -0.12232E-03   -0.23036E-05  1625   0.111E-02    0.432E-02
RMM:  14    -0.113208549649E+04   -0.57196E-04   -0.12506E-05  1524   0.875E-03    0.416E-02
RMM:  15    -0.113208550782E+04   -0.11334E-04   -0.52758E-06  1399   0.568E-03    0.402E-02
RMM:  16    -0.113208551295E+04   -0.51281E-05   -0.19675E-06  1277   0.375E-03    0.111E-02
RMM:  17    -0.113208552583E+04   -0.12878E-04   -0.86643E-07  1176   0.240E-03    0.889E-03
RMM:  18    -0.113208553177E+04   -0.59369E-05   -0.56315E-07  1147   0.187E-03    0.808E-03
RMM:  19    -0.113208553760E+04   -0.58338E-05   -0.34260E-07  1115   0.135E-03    0.379E-03
RMM:  20    -0.113208554117E+04   -0.35707E-05   -0.19986E-07  1029   0.102E-03    0.390E-03
RMM:  21    -0.113208554487E+04   -0.37002E-05   -0.13947E-07   967   0.750E-04    0.531E-03
RMM:  22    -0.113208554791E+04   -0.30335E-05   -0.10905E-07   922   0.709E-04    0.460E-03
RMM:  23    -0.113208555338E+04   -0.54736E-05   -0.11095E-07   878   0.561E-04    0.230E-03
RMM:  24    -0.113208555598E+04   -0.26011E-05   -0.82633E-08   803   0.568E-04    0.173E-03
RMM:  25    -0.113208555940E+04   -0.34236E-05   -0.85468E-08   806   0.484E-04    0.126E-03
RMM:  26    -0.113208556221E+04   -0.28087E-05   -0.75455E-08   822   0.475E-04    0.188E-03
RMM:  27    -0.113208556380E+04   -0.15878E-05   -0.58255E-08   745   0.420E-04    0.215E-03
RMM:  28    -0.113208556618E+04   -0.23789E-05   -0.60546E-08   748   0.406E-04    0.172E-03
RMM:  29    -0.113208556899E+04   -0.28091E-05   -0.76559E-08   775   0.415E-04    0.932E-04
