Co–organic framework                  
           1
    25.487205    0.684674   -0.200822
    13.334082   22.033368   -0.175323
    -0.052650   -0.023132    6.829225
   O    C    H    Co   Li
  52  66  16  18   2
Direct configuration=     1
   0.05365693  0.26243437  0.30204557
   0.03001348  0.31150207  0.94926210
   0.09984043  0.26430428  0.71067142
   0.67161182  0.07514714  0.31535185
   0.64844334  0.04918282  0.95978955
   0.61399991  0.11837946  0.71914732
   0.01887105  0.40280282  0.64377375
   0.30731925  0.63969166  0.32755503
   0.35235322  0.61100413  0.96366849
   0.31683065  0.56535424  0.77270794
   0.58191495  0.02091849  0.63887163
   0.29759916  0.02214324  0.34583526
   0.22796614  0.06880707  0.58353894
   0.27314869  0.06949720  0.98824163
   0.66370037  0.31246613  0.32093649
   0.69744673  0.23947968  0.55186763
   0.02007576  0.63302288  0.70489315
   0.04126391  0.56525984  0.94069278
   0.60736641  0.29881297  0.99811408
   0.06016553  0.66432950  0.37420522
   0.10743262  0.68364474  0.61547815
   0.37331639  0.98108146  0.68408674
   0.41170670  0.01149851  0.92142706
   0.10928593  0.63223629  0.01688331
   0.70276364  0.97615981  0.62421578
   0.77260891  0.93604828  0.38453266
   0.73040687  0.92893101  0.97742752
   0.38595720  0.67048461  0.50537878
   0.31789072  0.75242897  0.33546275
   0.99178573  0.38362433  0.28405786
   0.96552409  0.45342728  0.05003844
   0.36281415  0.70266157  0.92270400
   0.95687657  0.34982970  0.61401116
   0.91393516  0.32433892  0.37484635
   0.62908595  0.00060994  0.28657774
   0.59423736  0.96819835  0.04262937
   0.90692104  0.37646594  0.97174876
   0.96217969  0.75391608  0.67915892
   0.98843954  0.70776993  0.04246820
   0.91554222  0.75057731  0.27153024
   0.31278193  0.92685413  0.64782587
   0.33380277  0.94914595  0.01280936
   0.36689144  0.87762830  0.24338571
   0.99484076  0.61316639  0.34287404
   0.73767509  0.32670561  0.65282857
   0.66274549  0.39463075  0.97718670
   0.71725823  0.39592853  0.23742008
   0.41987498  0.96044939  0.32246432
   0.60915621  0.44808389  0.56122167
   0.58716793  0.52325512  0.77443437
   0.63912184  0.51542125  0.49868269
   0.79641794  0.21549547  0.12791218
   0.10687547  0.21663664  0.22211914
   0.14893984  0.16735285  0.34121724
   0.08220580  0.26618694  0.88531646
   0.12255280  0.21527861  0.02143481
   0.65655124  0.12888603  0.23250101
   0.66664729  0.16910341  0.34127578
   0.63078942  0.10298393  0.89593009
   0.63293765  0.14616959  0.03661443
   0.01154569  0.45396857  0.56619255
   0.01988495  0.49288978  0.68914279
   0.25906066  0.63591607  0.25534890
   0.20700287  0.65444528  0.37048876
   0.31350694  0.59356151  0.93310175
   0.26182070  0.61187161  0.06530037
   0.54407080  0.00511359  0.55746567
   0.50014740  0.00511700  0.67688716
   0.24507838  0.06716602  0.40887477
   0.20490571  0.11745783  0.27035943
   0.22050013  0.11577436  0.06909706
   0.17852740  0.16534414  0.95036517
   0.67190240  0.26109734  0.38640374
   0.65272336  0.22580783  0.26747720
   0.02602814  0.58302721  0.76490253
   0.01447937  0.54644728  0.62206222
   0.62335676  0.24565713  0.07912834
   0.61480041  0.20433771  0.96840483
   0.10551522  0.66802527  0.43933620
   0.15671124  0.65141025  0.30145629
   0.41245708  0.99456129  0.74552071
   0.45828406  0.99018872  0.60586449
   0.15704829  0.63173257  0.10371082
   0.21080030  0.61073993  0.99316134
   0.75729479  0.93556219  0.55986081
   0.80184968  0.88801620  0.70006329
   0.78625131  0.88796723  0.90002885
   0.83165688  0.84234380  0.02260696
   0.34741235  0.73025173  0.49535592
   0.34193289  0.77208903  0.65485414
   0.98388056  0.43435818  0.22414838
   0.99615963  0.47091625  0.36471139
   0.35431026  0.75591988  0.85701950
   0.35552050  0.79807146  0.98543778
   0.91490881  0.34058654  0.55113003
   0.86669715  0.34932286  0.68864204
   0.59178402  0.98545067  0.21894526
   0.54576398  0.98858312  0.35607928
   0.86444761  0.36727236  0.88890319
   0.81485802  0.37602059  0.00242748
   0.90659540  0.79659806  0.75591733
   0.86117318  0.84289273  0.63362115
   0.93332553  0.74986431  0.09839512
   0.89079722  0.79720128  0.95619933
   0.32635596  0.87300363  0.72373885
   0.32628990  0.83034491  0.59521975
   0.34816155  0.89556496  0.06940524
   0.34242155  0.85560744  0.92403043
   0.00005536  0.56291835  0.42027316
   0.99082184  0.52451315  0.29758436
   0.77479801  0.34433788  0.73241827
   0.82279926  0.33712964  0.61765745
   0.71460939  0.38432171  0.05225727
   0.76856834  0.36708829  0.92789988
   0.45935414  0.97424422  0.40403842
   0.50400651  0.97343736  0.28494256
   0.61225104  0.49862451  0.61187980
   0.75860838  0.24549746  0.00802308
   0.13723792  0.16806145  0.49444768
   0.68753240  0.15474479  0.48674709
   0.03131329  0.48044402  0.84282524
   0.20484361  0.67209133  0.51850602
   0.49858590  0.01746743  0.83085447
   0.19028204  0.16455163  0.79721454
   0.59642831  0.21736405  0.81950906
   0.21168210  0.59470938  0.84403263
   0.82006267  0.84209406  0.17526342
   0.36673459  0.78616446  0.13928427
   0.81308681  0.38997809  0.15493497
   0.87250451  0.84325497  0.48069725
   0.31582405  0.84264326  0.44136748
   0.97941897  0.53701735  0.14393518
   0.82674832  0.32041408  0.46759903
   0.50568276  0.96107579  0.13089747
   0.33429048  0.59580159  0.55945232
   0.04204723  0.32152336  0.50682663
   0.63049324  0.05406160  0.51420713
   0.04583764  0.68895576  0.81170854
   0.35590259  0.00820671  0.11824422
   0.28843861  0.00762231  0.78165722
   0.66959396  0.31612204  0.01589215
   0.72503197  0.26533354  0.76362540
   0.04466452  0.62128005  0.14224993
   0.64569644  0.97936292  0.84533694
   0.96941852  0.32451159  0.17559713
   0.37684692  0.63400683  0.72985032
   0.70611144  0.99175270  0.18511681
   0.96743307  0.39720507  0.84465499
   0.34226947  0.67868074  0.16767892
   0.67730039  0.37479282  0.45156202
   0.97555308  0.69286716  0.47586072
   0.36178552  0.93838140  0.44710718
   0.67740460  0.48342702  0.27643220
   0.58922166  0.45168983  0.83509155
Co–organic framework                  
           1
    25.468755    0.693990   -0.202624
    13.332922   22.016380   -0.179222
    -0.053100   -0.024070    6.826459
   O    C    H    Co   Li
  52  66  16  18   2
Direct configuration=     2
   0.05349180  0.26257167  0.30220858
   0.02988161  0.31156897  0.94903841
   0.09989606  0.26417813  0.71118120
   0.67161939  0.07513424  0.31540184
   0.64842988  0.04919029  0.95972386
   0.61400109  0.11837196  0.71916205
   0.01882784  0.40283765  0.64360547
   0.30747700  0.63961007  0.32757331
   0.35242519  0.61101373  0.96383584
   0.31685414  0.56527230  0.77270666
   0.58193332  0.02093608  0.63890416
   0.29762501  0.02211862  0.34579854
   0.22795612  0.06879934  0.58365091
   0.27322961  0.06940741  0.98811097
   0.66369459  0.31246846  0.32091205
   0.69742690  0.23947276  0.55176552
   0.02008113  0.63309014  0.70483123
   0.04127819  0.56526925  0.94077041
   0.60734341  0.29885736  0.99801756
   0.06016255  0.66436046  0.37426430
   0.10744314  0.68363133  0.61547310
   0.37329392  0.98104374  0.68402862
   0.41170756  0.01150007  0.92146962
   0.10929163  0.63222800  0.01670466
   0.70272782  0.97618519  0.62429214
   0.77263456  0.93604248  0.38442015
   0.73032224  0.92899749  0.97751768
   0.38599278  0.67046859  0.50549974
   0.31789471  0.75244384  0.33555297
   0.99185207  0.38344375  0.28391623
   0.96566248  0.45347195  0.05086622
   0.36282194  0.70260401  0.92306998
   0.95690044  0.34979762  0.61376759
   0.91381494  0.32437074  0.37513813
   0.62910214  0.00062287  0.28662173
   0.59423687  0.96819465  0.04257192
   0.90688545  0.37645802  0.97206795
   0.96224747  0.75389304  0.67909040
   0.98845138  0.70776557  0.04248983
   0.91553331  0.75059538  0.27153595
   0.31282529  0.92678624  0.64777694
   0.33380743  0.94911960  0.01280446
   0.36689128  0.87761385  0.24335795
   0.99477935  0.61334246  0.34270943
   0.73764753  0.32671443  0.65280672
   0.66264509  0.39466199  0.97717966
   0.71724212  0.39597433  0.23775305
   0.41982770  0.96043107  0.32240317
   0.60917961  0.44816136  0.56107392
   0.58721571  0.52321267  0.77394217
   0.63912620  0.51540317  0.49851534
   0.79674413  0.21523786  0.12894745
   0.10694075  0.21651116  0.22176398
   0.14891600  0.16735604  0.34116364
   0.08219934  0.26624260  0.88492536
   0.12255471  0.21525232  0.02175162
   0.65655214  0.12890907  0.23255322
   0.66664108  0.16905728  0.34121603
   0.63077956  0.10302202  0.89594239
   0.63291677  0.14619979  0.03649918
   0.01159286  0.45409821  0.56570974
   0.01988946  0.49278699  0.68901071
   0.25898831  0.63593635  0.25518814
   0.20702159  0.65442501  0.37030840
   0.31346234  0.59357802  0.93318268
   0.26189007  0.61184525  0.06539381
   0.54408877  0.00511672  0.55741384
   0.50012578  0.00509665  0.67681223
   0.24506905  0.06717282  0.40882394
   0.20492795  0.11743667  0.27035173
   0.22048012  0.11577417  0.06923334
   0.17848738  0.16537096  0.95053058
   0.67190151  0.26113065  0.38649692
   0.65269712  0.22583803  0.26742625
   0.02603854  0.58292976  0.76481513
   0.01444062  0.54655848  0.62178486
   0.62334651  0.24570861  0.07917024
   0.61480735  0.20428011  0.96840597
   0.10554065  0.66801497  0.43929784
   0.15671345  0.65140081  0.30153523
   0.41247745  0.99457010  0.74556914
   0.45827788  0.99018772  0.60591090
   0.15705017  0.63174664  0.10389336
   0.21079285  0.61073421  0.99321775
   0.75729158  0.93557948  0.55984167
   0.80187294  0.88801009  0.69998126
   0.78628580  0.88794361  0.90006747
   0.83167962  0.84234073  0.02245944
   0.34745815  0.73016844  0.49502168
   0.34193385  0.77208840  0.65495061
   0.98371846  0.43458399  0.22348124
   0.99620650  0.47085394  0.36528824
   0.35432182  0.75589638  0.85676902
   0.35549991  0.79817668  0.98546302
   0.91499247  0.34054409  0.55110740
   0.86666664  0.34937169  0.68882104
   0.59176304  0.98544455  0.21896199
   0.54576476  0.98857693  0.35597156
   0.86442363  0.36731567  0.88842574
   0.81486657  0.37600743  0.00246935
   0.90660510  0.79658194  0.75614631
   0.86113825  0.84292324  0.63370239
   0.93332367  0.74986945  0.09835610
   0.89081879  0.79718759  0.95613814
   0.32633338  0.87308625  0.72363200
   0.32630466  0.83028377  0.59537721
   0.34817687  0.89555279  0.06942081
   0.34247891  0.85550912  0.92429045
   0.00008741  0.56275991  0.42068269
   0.99082462  0.52454012  0.29760304
   0.77476293  0.34434799  0.73241529
   0.82284939  0.33713835  0.61757780
   0.71469626  0.38428396  0.05179969
   0.76845080  0.36714395  0.92831149
   0.45936113  0.97424563  0.40413780
   0.50402937  0.97345861  0.28502501
   0.61207004  0.49869445  0.61270471
   0.75827044  0.24576135  0.00693785
   0.13721955  0.16806039  0.49468325
   0.68755498  0.15472680  0.48695529
   0.03133548  0.48041996  0.84302580
   0.20483724  0.67210547  0.51866868
   0.49857426  0.01748146  0.83106239
   0.19029693  0.16454987  0.79693799
   0.59640740  0.21738456  0.81941364
   0.21169958  0.59467206  0.84377952
   0.82004950  0.84209739  0.17550206
   0.36674777  0.78614302  0.13945136
   0.81306094  0.38999809  0.15506335
   0.87252723  0.84325977  0.48041983
   0.31581499  0.84265417  0.44109412
   0.97939373  0.53703784  0.14375245
   0.82674631  0.32040373  0.46742897
   0.50569254  0.96106212  0.13070108
   0.33432260  0.59580397  0.55930295
   0.04143521  0.32205995  0.50777921
   0.63048970  0.05406354  0.51416453
   0.04582397  0.68894434  0.81161640
   0.35590027  0.00823343  0.11826454
   0.28838178  0.00767640  0.78168012
   0.66957331  0.31614527  0.01582609
   0.72503380  0.26534190  0.76375887
   0.04468158  0.62126895  0.14219112
   0.64571250  0.97935567  0.84532501
   0.96989911  0.32470901  0.17465280
   0.37686317  0.63402028  0.72963760
   0.70612730  0.99174965  0.18508408
   0.96766878  0.39633232  0.84475434
   0.34228051  0.67869134  0.16762021
   0.67727157  0.37481143  0.45160856
   0.97559788  0.69279907  0.47588635
   0.36178779  0.93837270  0.44723050
   0.67739988  0.48343636  0.27640188
   0.58919303  0.45169996  0.83513477
Co–organic framework                  
           1
    25.478704    0.688966   -0.201652
    13.333547   22.025541   -0.177119
    -0.052857   -0.023564    6.827950
   O    C    H    Co   Li
  52  66  16  18   2
Direct configuration=     3
   0.05358096  0.26249753  0.30212062
   0.02995280  0.31153284  0.94915908
   0.09986601  0.26424621  0.71090623
   0.67161530  0.07514120  0.31537488
   0.64843715  0.04918625  0.95975930
   0.61400045  0.11837601  0.71915410
   0.01885117  0.40281884  0.64369625
   0.30739184  0.63965414  0.32756345
   0.35238634  0.61100856  0.96374555
   0.31684145  0.56531653  0.77270737
   0.58192341  0.02092659  0.63888660
   0.29761105  0.02213191  0.34581836
   0.22796153  0.06880351  0.58359051
   0.27318592  0.06945589  0.98818147
   0.66369771  0.31246720  0.32092524
   0.69743760  0.23947650  0.55182061
   0.02007824  0.63305385  0.70486461
   0.04127048  0.56526418  0.94072853
   0.60735583  0.29883340  0.99806962
   0.06016416  0.66434375  0.37423242
   0.10743746  0.68363857  0.61547583
   0.37330604  0.98106409  0.68405999
   0.41170709  0.01149923  0.92144666
   0.10928855  0.63223248  0.01680104
   0.70274716  0.97617148  0.62425095
   0.77262071  0.93604562  0.38448084
   0.73036793  0.92896159  0.97746904
   0.38597357  0.67047724  0.50543448
   0.31789256  0.75243581  0.33550429
   0.99181623  0.38354122  0.28399268
   0.96558779  0.45344786  0.05041964
   0.36281772  0.70263507  0.92287257
   0.95688755  0.34981494  0.61389899
   0.91387984  0.32435353  0.37498074
   0.62909341  0.00061589  0.28659799
   0.59423713  0.96819665  0.04260291
   0.90690466  0.37646228  0.97189577
   0.96221088  0.75390549  0.67912736
   0.98844499  0.70776793  0.04247816
   0.91553812  0.75058563  0.27153286
   0.31280187  0.92682289  0.64780335
   0.33380491  0.94913382  0.01280711
   0.36689136  0.87762165  0.24337293
   0.99481253  0.61324743  0.34279819
   0.73766241  0.32670966  0.65281851
   0.66269929  0.39464511  0.97718346
   0.71725083  0.39594960  0.23757341
   0.41985322  0.96044094  0.32243617
   0.60916700  0.44811957  0.56115360
   0.58718991  0.52323561  0.77420769
   0.63912384  0.51541293  0.49860563
   0.79656802  0.21537694  0.12838899
   0.10690549  0.21657890  0.22195560
   0.14892887  0.16735432  0.34119256
   0.08220284  0.26621257  0.88513633
   0.12255368  0.21526650  0.02158073
   0.65655166  0.12889664  0.23252505
   0.66664442  0.16908217  0.34124828
   0.63078489  0.10300146  0.89593575
   0.63292804  0.14618349  0.03656135
   0.01156743  0.45402827  0.56597015
   0.01988701  0.49284246  0.68908199
   0.25902736  0.63592539  0.25527486
   0.20701148  0.65443596  0.37040570
   0.31348642  0.59356910  0.93313903
   0.26185262  0.61185949  0.06534340
   0.54407907  0.00511504  0.55744179
   0.50013744  0.00510763  0.67685266
   0.24507409  0.06716915  0.40885136
   0.20491594  0.11744809  0.27035589
   0.22049092  0.11577427  0.06915982
   0.17850899  0.16535647  0.95044134
   0.67190200  0.26111267  0.38644664
   0.65271129  0.22582173  0.26745373
   0.02603291  0.58298235  0.76486231
   0.01446155  0.54649847  0.62193446
   0.62335206  0.24568082  0.07914762
   0.61480359  0.20431119  0.96840538
   0.10552692  0.66802053  0.43931853
   0.15671226  0.65140591  0.30149265
   0.41246646  0.99456535  0.74554301
   0.45828122  0.99018826  0.60588587
   0.15704916  0.63173904  0.10379488
   0.21079687  0.61073729  0.99318732
   0.75729332  0.93557015  0.55985199
   0.80186038  0.88801340  0.70002551
   0.78626718  0.88795636  0.90004664
   0.83166734  0.84234240  0.02253902
   0.34743341  0.73021341  0.49520201
   0.34193333  0.77208874  0.65489857
   0.98380599  0.43446211  0.22384109
   0.99618119  0.47088756  0.36497707
   0.35431558  0.75590907  0.85690415
   0.35551104  0.79811989  0.98544937
   0.91494731  0.34056702  0.55111961
   0.86668312  0.34934533  0.68872447
   0.59177437  0.98544785  0.21895297
   0.54576434  0.98858027  0.35602967
   0.86443658  0.36729230  0.88868329
   0.81486195  0.37601453  0.00244676
   0.90659986  0.79659064  0.75602279
   0.86115711  0.84290676  0.63365856
   0.93332467  0.74986668  0.09837715
   0.89080715  0.79719498  0.95617115
   0.32634559  0.87304166  0.72368962
   0.32629668  0.83031677  0.59529228
   0.34816860  0.89555936  0.06941241
   0.34244793  0.85556219  0.92415020
   0.00007008  0.56284541  0.42046181
   0.99082312  0.52452557  0.29759295
   0.77478187  0.34434253  0.73241690
   0.82282233  0.33713366  0.61762075
   0.71464936  0.38430436  0.05204653
   0.76851425  0.36711388  0.92808944
   0.45935736  0.97424487  0.40408419
   0.50401703  0.97344715  0.28498052
   0.61216775  0.49865664  0.61225971
   0.75845290  0.24561888  0.00752325
   0.13722946  0.16806095  0.49455617
   0.68754279  0.15473651  0.48684298
   0.03132350  0.48043295  0.84291761
   0.20484068  0.67209783  0.51858093
   0.49858055  0.01747388  0.83095023
   0.19028889  0.16455083  0.79708718
   0.59641869  0.21737349  0.81946511
   0.21169014  0.59469221  0.84391607
   0.82005661  0.84209558  0.17537333
   0.36674066  0.78615459  0.13936123
   0.81307491  0.38998729  0.15499410
   0.87251497  0.84325719  0.48056948
   0.31581988  0.84264829  0.44124158
   0.97940736  0.53702678  0.14385102
   0.82674739  0.32040932  0.46752071
   0.50568726  0.96106951  0.13080703
   0.33430527  0.59580269  0.55938352
   0.04176566  0.32177020  0.50726526
   0.63049161  0.05406249  0.51418751
   0.04583135  0.68895051  0.81166611
   0.35590153  0.00821901  0.11825357
   0.28841246  0.00764719  0.78166776
   0.66958446  0.31613273  0.01586172
   0.72503282  0.26533739  0.76368687
   0.04467237  0.62127495  0.14222284
   0.64570383  0.97935959  0.84533144
   0.96963975  0.32460261  0.17516209
   0.37685440  0.63401303  0.72975235
   0.70611874  0.99175130  0.18510173
   0.96754139  0.39680336  0.84470098
   0.34227455  0.67868562  0.16765188
   0.67728713  0.37480138  0.45158345
   0.97557368  0.69283583  0.47587254
   0.36178656  0.93837739  0.44716398
   0.67740243  0.48343132  0.27641823
   0.58920848  0.45169448  0.83511146
Co–organic framework                  
           1
    25.469086    0.694672   -0.203053
    13.333680   22.016752   -0.178875
    -0.053217   -0.023890    6.826969
   O    C    H    Co   Li
  52  66  16  18   2
Direct configuration=     4
   0.05351683  0.26255008  0.30218970
   0.02989155  0.31155887  0.94900897
   0.09990871  0.26417886  0.71100561
   0.67162065  0.07513249  0.31540416
   0.64842978  0.04918929  0.95973769
   0.61399585  0.11837917  0.71912680
   0.01882093  0.40285186  0.64360966
   0.30746712  0.63960832  0.32753985
   0.35241811  0.61100611  0.96381286
   0.31685754  0.56527429  0.77271522
   0.58193022  0.02093850  0.63890259
   0.29763136  0.02211208  0.34579042
   0.22795151  0.06880361  0.58363389
   0.27322235  0.06941522  0.98812355
   0.66369007  0.31248342  0.32090459
   0.69743563  0.23946637  0.55183109
   0.02008599  0.63305992  0.70486147
   0.04127719  0.56526137  0.94074483
   0.60733582  0.29886703  0.99800078
   0.06015694  0.66436011  0.37423877
   0.10744837  0.68363260  0.61550434
   0.37330366  0.98104441  0.68404771
   0.41170908  0.01150297  0.92149267
   0.10929260  0.63222653  0.01670839
   0.70272347  0.97618976  0.62429522
   0.77263654  0.93604184  0.38442750
   0.73032806  0.92899139  0.97751178
   0.38601527  0.67044090  0.50547757
   0.31788131  0.75245334  0.33546807
   0.99183981  0.38350953  0.28383688
   0.96563398  0.45350321  0.05053120
   0.36282247  0.70261254  0.92305505
   0.95691329  0.34979994  0.61380590
   0.91382498  0.32436882  0.37505600
   0.62909753  0.00062208  0.28661985
   0.59423575  0.96819278  0.04255841
   0.90688307  0.37646473  0.97206016
   0.96225021  0.75389502  0.67909568
   0.98846710  0.70775501  0.04247433
   0.91552763  0.75060017  0.27154644
   0.31281964  0.92680697  0.64775714
   0.33380466  0.94912895  0.01278690
   0.36689751  0.87760879  0.24340760
   0.99477970  0.61330185  0.34276482
   0.73764664  0.32671232  0.65280436
   0.66265181  0.39466306  0.97718382
   0.71724157  0.39596570  0.23763484
   0.41983670  0.96043025  0.32241436
   0.60916580  0.44815091  0.56108712
   0.58715799  0.52326923  0.77428853
   0.63909805  0.51539519  0.49863391
   0.79646992  0.21545582  0.12807584
   0.10688403  0.21655649  0.22190287
   0.14891407  0.16734952  0.34123060
   0.08220591  0.26621513  0.88513474
   0.12253574  0.21527643  0.02165818
   0.65654974  0.12889730  0.23252483
   0.66664687  0.16907222  0.34127709
   0.63077957  0.10301657  0.89593813
   0.63292312  0.14618537  0.03654207
   0.01160314  0.45404259  0.56584654
   0.01989653  0.49283794  0.68906359
   0.25902723  0.63593515  0.25522152
   0.20701288  0.65443896  0.37041067
   0.31349222  0.59357131  0.93314883
   0.26187235  0.61184331  0.06535718
   0.54408551  0.00511723  0.55742535
   0.50013931  0.00510480  0.67687461
   0.24506892  0.06716940  0.40886200
   0.20492846  0.11743443  0.27036796
   0.22049641  0.11575980  0.06919787
   0.17850905  0.16535644  0.95043779
   0.67189571  0.26112438  0.38644065
   0.65269834  0.22583640  0.26744307
   0.02603786  0.58297212  0.76481313
   0.01445148  0.54650389  0.62192297
   0.62334324  0.24569883  0.07915730
   0.61479727  0.20431267  0.96837257
   0.10554040  0.66801742  0.43931751
   0.15671110  0.65140034  0.30152939
   0.41246433  0.99456449  0.74555012
   0.45827226  0.99018486  0.60589999
   0.15704509  0.63174302  0.10385419
   0.21080479  0.61072599  0.99317614
   0.75729526  0.93557888  0.55981713
   0.80185438  0.88802405  0.70001394
   0.78626781  0.88795998  0.90004656
   0.83166569  0.84234544  0.02257021
   0.34745583  0.73018933  0.49513453
   0.34193886  0.77206178  0.65490731
   0.98376748  0.43449761  0.22390098
   0.99618775  0.47089141  0.36506725
   0.35432582  0.75589730  0.85687020
   0.35551148  0.79812322  0.98549668
   0.91495635  0.34054087  0.55108809
   0.86668439  0.34936792  0.68873761
   0.59177235  0.98544578  0.21894923
   0.54577306  0.98858229  0.35600676
   0.86440442  0.36732517  0.88856367
   0.81486472  0.37601086  0.00247485
   0.90661338  0.79657940  0.75609219
   0.86116554  0.84290639  0.63362091
   0.93331854  0.74987256  0.09837950
   0.89082825  0.79717951  0.95615119
   0.32634469  0.87304850  0.72369313
   0.32629335  0.83031567  0.59528794
   0.34817885  0.89554398  0.06942301
   0.34246523  0.85555568  0.92419923
   0.00007568  0.56283539  0.42051725
   0.99082457  0.52451413  0.29760717
   0.77476934  0.34435245  0.73242948
   0.82282623  0.33713749  0.61758487
   0.71465494  0.38430844  0.05200329
   0.76848114  0.36713001  0.92818878
   0.45935478  0.97424154  0.40410566
   0.50401622  0.97344966  0.28495464
   0.61215475  0.49867196  0.61223124
   0.75855986  0.24553206  0.00790173
   0.13721893  0.16806225  0.49465857
   0.68755229  0.15472753  0.48693927
   0.03133385  0.48041797  0.84299410
   0.20483864  0.67210111  0.51863691
   0.49857379  0.01747911  0.83103721
   0.19029233  0.16455051  0.79699203
   0.59640737  0.21738387  0.81941476
   0.21169947  0.59467401  0.84380272
   0.82005319  0.84209775  0.17545771
   0.36674661  0.78614504  0.13943730
   0.81306303  0.38999816  0.15506743
   0.87252574  0.84325910  0.48045887
   0.31581925  0.84264713  0.44114400
   0.97939349  0.53703843  0.14377129
   0.82674860  0.32040364  0.46742561
   0.50569272  0.96106439  0.13072675
   0.33432484  0.59579548  0.55932410
   0.04141540  0.32208237  0.50778129
   0.63048600  0.05406855  0.51415927
   0.04582624  0.68894446  0.81161277
   0.35590297  0.00823263  0.11826489
   0.28837876  0.00767617  0.78167843
   0.66956655  0.31615041  0.01584580
   0.72502836  0.26534393  0.76365810
   0.04468455  0.62126783  0.14219715
   0.64571066  0.97935514  0.84532727
   0.96991175  0.32471356  0.17465391
   0.37686394  0.63401785  0.72965798
   0.70612858  0.99175131  0.18508143
   0.96767197  0.39630716  0.84475020
   0.34228085  0.67868865  0.16761171
   0.67727214  0.37481517  0.45158549
   0.97559606  0.69279880  0.47588628
   0.36179204  0.93836639  0.44722987
   0.67739914  0.48343825  0.27640470
   0.58918883  0.45169814  0.83513944
Co–organic framework                  
           1
    25.463281    0.698116   -0.203899
    13.333760   22.011447   -0.179935
    -0.053434   -0.024086    6.826377
   O    C    H    Co   Li
  52  66  16  18   2
Direct configuration=     5
   0.05347811  0.26258182  0.30223140
   0.02985456  0.31157460  0.94891836
   0.09993451  0.26413818  0.71106560
   0.67162388  0.07512724  0.31542184
   0.64842533  0.04919112  0.95972465
   0.61399307  0.11838108  0.71911033
   0.01880267  0.40287180  0.64355739
   0.30751258  0.63958063  0.32752561
   0.35243730  0.61100462  0.96385349
   0.31686726  0.56524878  0.77271996
   0.58193434  0.02094569  0.63891224
   0.29764363  0.02210011  0.34577356
   0.22794546  0.06880368  0.58366007
   0.27324435  0.06939066  0.98808858
   0.66368545  0.31249321  0.32089213
   0.69743444  0.23946026  0.55183742
   0.02009066  0.63306358  0.70485957
   0.04128125  0.56525968  0.94075467
   0.60732373  0.29888734  0.99795922
   0.06015257  0.66436998  0.37424260
   0.10745497  0.68362900  0.61552155
   0.37330222  0.98103252  0.68404030
   0.41171027  0.01150522  0.92152044
   0.10929505  0.63222294  0.01665246
   0.70270916  0.97620080  0.62432194
   0.77264610  0.93603956  0.38439530
   0.73030397  0.92900939  0.97753758
   0.38604046  0.67041896  0.50550358
   0.31787452  0.75246393  0.33544620
   0.99185405  0.38349038  0.28374283
   0.96566186  0.45353663  0.05059856
   0.36282535  0.70259895  0.92316520
   0.95692883  0.34979088  0.61374971
   0.91379186  0.32437806  0.37510142
   0.62910003  0.00062581  0.28663305
   0.59423491  0.96819045  0.04253154
   0.90687003  0.37646622  0.97215939
   0.96227396  0.75388868  0.67907656
   0.98848046  0.70774721  0.04247202
   0.91552128  0.75060895  0.27155464
   0.31283036  0.92679735  0.64772925
   0.33380451  0.94912601  0.01277471
   0.36690123  0.87760102  0.24342853
   0.99475987  0.61333471  0.34274468
   0.73763711  0.32671392  0.65279582
   0.66262313  0.39467390  0.97718403
   0.71723598  0.39597542  0.23767192
   0.41982674  0.96042380  0.32240119
   0.60916507  0.44816983  0.56104700
   0.58713871  0.52328954  0.77433733
   0.63908248  0.51538448  0.49865098
   0.79641067  0.21550346  0.12788680
   0.10687108  0.21654296  0.22187103
   0.14890514  0.16734662  0.34125356
   0.08220777  0.26621668  0.88513378
   0.12252490  0.21528243  0.02170493
   0.65654858  0.12889770  0.23252469
   0.66664834  0.16906621  0.34129447
   0.63077636  0.10302569  0.89593957
   0.63292014  0.14618650  0.03653044
   0.01162470  0.45405123  0.56577193
   0.01990228  0.49283520  0.68905248
   0.25902715  0.63594104  0.25518932
   0.20701372  0.65444076  0.37041367
   0.31349573  0.59357265  0.93315475
   0.26188427  0.61183354  0.06536550
   0.54408940  0.00511855  0.55741542
   0.50014043  0.00510309  0.67688786
   0.24506580  0.06716955  0.40886842
   0.20493602  0.11742618  0.27037525
   0.22049972  0.11575106  0.06922084
   0.17850909  0.16535643  0.95043564
   0.67189191  0.26113145  0.38643703
   0.65269052  0.22584526  0.26743663
   0.02604086  0.58296594  0.76478344
   0.01444540  0.54650717  0.62191604
   0.62333791  0.24570971  0.07916314
   0.61479346  0.20431357  0.96835277
   0.10554854  0.66801553  0.43931690
   0.15671041  0.65139698  0.30155156
   0.41246305  0.99456397  0.74555441
   0.45826685  0.99018282  0.60590852
   0.15704264  0.63174542  0.10388999
   0.21080958  0.61071916  0.99316939
   0.75729643  0.93558415  0.55979609
   0.80185076  0.88803048  0.70000696
   0.78626819  0.88796216  0.90004652
   0.83166470  0.84234728  0.02258905
   0.34746937  0.73017478  0.49509380
   0.34194220  0.77204551  0.65491259
   0.98374421  0.43451905  0.22393713
   0.99619172  0.47089373  0.36512168
   0.35433200  0.75589019  0.85684970
   0.35551175  0.79812522  0.98552524
   0.91496181  0.34052507  0.55106907
   0.86668516  0.34938156  0.68874554
   0.59177113  0.98544453  0.21894697
   0.54577832  0.98858351  0.35599293
   0.86438500  0.36734503  0.88849146
   0.81486639  0.37600864  0.00249181
   0.90662155  0.79657261  0.75613408
   0.86117062  0.84290616  0.63359819
   0.93331484  0.74987611  0.09838091
   0.89084099  0.79717016  0.95613914
   0.32634415  0.87305263  0.72369525
   0.32629134  0.83031501  0.59528531
   0.34818505  0.89553470  0.06942941
   0.34247567  0.85555175  0.92422882
   0.00007906  0.56282935  0.42055071
   0.99082545  0.52450723  0.29761576
   0.77476177  0.34435845  0.73243707
   0.82282858  0.33713981  0.61756321
   0.71465831  0.38431090  0.05197719
   0.76846115  0.36713976  0.92824874
   0.45935322  0.97423953  0.40411862
   0.50401573  0.97345117  0.28493902
   0.61214689  0.49868121  0.61221406
   0.75862446  0.24547962  0.00813019
   0.13721257  0.16806304  0.49472037
   0.68755803  0.15472211  0.48699740
   0.03134010  0.48040892  0.84304027
   0.20483740  0.67210309  0.51867070
   0.49856971  0.01748226  0.83108972
   0.19029441  0.16455031  0.79693460
   0.59640053  0.21739015  0.81938437
   0.21170511  0.59466301  0.84373429
   0.82005112  0.84209906  0.17550864
   0.36675021  0.78613927  0.13948322
   0.81305585  0.39000473  0.15511169
   0.87253225  0.84326025  0.48039211
   0.31581887  0.84264643  0.44108510
   0.97938512  0.53704546  0.14372316
   0.82674933  0.32040022  0.46736821
   0.50569603  0.96106130  0.13067830
   0.33433667  0.59579112  0.55928823
   0.04120385  0.32227091  0.50809278
   0.63048261  0.05407220  0.51414223
   0.04582316  0.68894081  0.81158056
   0.35590383  0.00824085  0.11827173
   0.28835840  0.00769367  0.78168487
   0.66955574  0.31616109  0.01583619