Co–organic framework                  
           1
    23.842533    1.652614   -0.185147
    13.240902   22.101420   -0.163507
    -0.044245   -0.023270    6.828551
   O    C    H    Co   Li
  52  66  16  18   2
Direct configuration=     1
   0.02466859  0.27856488  0.30066336
   0.00171045  0.32512840  0.93552143
   0.07945845  0.27047356  0.70531840
   0.66825544  0.08081292  0.31044616
   0.64876092  0.05167484  0.95483197
   0.60358336  0.12292404  0.71453241
   0.00875971  0.41280548  0.63890361
   0.37477654  0.59774721  0.33585939
   0.43194440  0.56419829  0.99221124
   0.39530089  0.52198517  0.78375462
   0.58363754  0.01764098  0.63574391
   0.28276982  0.01942772  0.34844683
   0.20585188  0.06956166  0.58388647
   0.25675549  0.06568301  0.98792420
   0.61043862  0.33988846  0.33293471
   0.65531084  0.26472079  0.56370272
   0.05366274  0.61760492  0.69236748
   0.07066226  0.55094061  0.92802401
   0.55546108  0.32025343  0.00996818
   0.10119366  0.64269687  0.36013295
   0.15564753  0.65566893  0.60298745
   0.36757266  0.97076207  0.68813317
   0.40687437  0.00301960  0.92156212
   0.15813053  0.60463073  0.00268463
   0.71373949  0.97760054  0.62110523
   0.78952422  0.93727068  0.37913445
   0.74603331  0.92992927  0.97271505
   0.42909553  0.65544250  0.49025658
   0.33773717  0.73010885  0.32970934
   0.97861641  0.39792535  0.27380151
   0.95862166  0.46635782  0.04114372
   0.39294442  0.68178364  0.91317443
   0.92403857  0.38084001  0.60227761
   0.86961875  0.36611763  0.36377392
   0.63464102  0.99808703  0.28426165
   0.60041732  0.96401169  0.03947918
   0.86841023  0.41382623  0.96626222
   0.99707054  0.74105535  0.66776183
   0.02494916  0.69294407  0.03132922
   0.94586730  0.74270490  0.26143569
   0.29912890  0.92167359  0.64659338
   0.31906394  0.94542096  0.01679376
   0.36318753  0.87011853  0.24202815
   0.02306137  0.60275306  0.33052545
   0.69450946  0.35391328  0.67134952
   0.61224259  0.42477622  0.01112238
   0.68333754  0.40729589  0.25990521
   0.41656068  0.95228925  0.32208186
   0.56027068  0.47821849  0.58065954
   0.54195411  0.55820899  0.76262303
   0.62874244  0.51271480  0.55035663
   0.75559218  0.24644138  0.14890681
   0.08009220  0.22701523  0.22026086
   0.12320200  0.17462042  0.34002673
   0.05833574  0.27498872  0.87831740
   0.09806375  0.22270288  0.01883996
   0.64155804  0.13832584  0.23089062
   0.64169675  0.18372504  0.34434531
   0.62200847  0.10805733  0.89188221
   0.61508379  0.15506532  0.03504597
   0.01171932  0.45858488  0.55900705
   0.02968097  0.49115476  0.68031678
   0.32274251  0.59680560  0.25730377
   0.26502171  0.61800136  0.36774897
   0.38702832  0.55246138  0.94420100
   0.32689644  0.57445043  0.06366030
   0.54523196  0.00006456  0.55503211
   0.49945811  0.99857684  0.67529475
   0.22517233  0.06720817  0.40991643
   0.18271447  0.11975603  0.27044727
   0.20053806  0.11592868  0.06897283
   0.15722583  0.16777438  0.94909670
   0.62707801  0.28507194  0.39735087
   0.61541256  0.24466265  0.27486238
   0.05405143  0.57031809  0.75298207
   0.03389845  0.53958079  0.61160390
   0.58290381  0.26337154  0.08627062
   0.58450527  0.21689463  0.97091729
   0.15260073  0.64082306  0.42683117
   0.20986832  0.61932518  0.29129307
   0.40817735  0.98563322  0.74603997
   0.45628239  0.98234684  0.60497807
   0.21088530  0.60051874  0.09144437
   0.27097258  0.57658479  0.98479611
   0.77368024  0.93601473  0.55447834
   0.82351073  0.88610317  0.69295761
   0.80701835  0.88669393  0.89384264
   0.85667921  0.83883020  0.01538627
   0.37311765  0.71234661  0.48579865
   0.35542665  0.75724973  0.64904381
   0.97696570  0.44596570  0.21495751
   0.99758554  0.47616399  0.35666352
   0.37133862  0.74028549  0.84988617
   0.36393388  0.78579710  0.98061051
   0.87589514  0.37648119  0.54289185
   0.82649503  0.38409694  0.68748947
   0.59658465  0.98146872  0.21609761
   0.54803196  0.98325519  0.35344292
   0.82420373  0.40355946  0.88550737
   0.77170905  0.41132886  0.00212081
   0.93722411  0.78798784  0.74547933
   0.88790329  0.83746464  0.62461422
   0.96576232  0.73975313  0.08779245
   0.92047956  0.78988609  0.94661543
   0.32083413  0.86508735  0.72198467
   0.32787427  0.81920684  0.59208405
   0.34096311  0.88909109  0.06913270
   0.34029473  0.84698678  0.92161158
   0.01995737  0.55694901  0.40940074
   0.00191765  0.52453051  0.28793793
   0.73175477  0.37408130  0.74474910
   0.78231394  0.36764304  0.62578725
   0.67061343  0.41072162  0.07476336
   0.72436900  0.39909012  0.93783476
   0.45794020  0.96659351  0.40284214
   0.50497459  0.96680138  0.28299389
   0.57871899  0.51708082  0.62526226
   0.71414509  0.27518696  0.02535125
   0.11000485  0.17735247  0.49378763
   0.66477654  0.17036237  0.49008565
   0.04055672  0.47798888  0.83433663
   0.26222663  0.63472668  0.51745533
   0.49730122  0.01096940  0.82945025
   0.17085237  0.16494306  0.79582608
   0.56425543  0.22922862  0.82175161
   0.27300289  0.56079892  0.83448213
   0.84422546  0.83941846  0.16860924
   0.37782410  0.77352618  0.13386431
   0.77060718  0.42647673  0.15251596
   0.89999720  0.83708508  0.47104888
   0.31530156  0.83167307  0.43826002
   0.99114393  0.53763704  0.13385990
   0.78984747  0.34609028  0.48087656
   0.50726022  0.95440057  0.12874167
   0.40672394  0.55881982  0.57326247
   0.02019772  0.33674068  0.50448866
   0.63001157  0.05510504  0.51028127
   0.08750556  0.66763540  0.80067070
   0.34616337  0.00192187  0.11866184
   0.27245644  0.00382063  0.78009911
   0.61461651  0.34555936  0.02571984
   0.68005311  0.29339839  0.77844385
   0.08164299  0.60304219  0.12739132
   0.65355112  0.97788344  0.84244916
   0.93930426  0.35247023  0.16647758
   0.44215667  0.60845835  0.73445765
   0.71432346  0.99434418  0.18112540
   0.94693004  0.41496289  0.84032038
   0.39346718  0.64909954  0.17189154
   0.62808767  0.39815371  0.46183011
   0.00800396  0.68048783  0.46548895
   0.35353964  0.93214300  0.44761377
   0.70586504  0.45471190  0.42555595
   0.53244923  0.49281412  0.88164588
Co–organic framework                  
           1
    23.816419    1.660811   -0.184556
    13.234511   22.093962   -0.163561
    -0.044033   -0.023400    6.827599
   O    C    H    Co   Li
  52  66  16  18   2
Direct configuration=     2
   0.02456726  0.27868260  0.30074778
   0.00168498  0.32514984  0.93557977
   0.07946130  0.27048596  0.70527228
   0.66823388  0.08083957  0.31056553
   0.64876230  0.05165157  0.95482152
   0.60356775  0.12294652  0.71450882
   0.00875164  0.41281039  0.63893003
   0.37478098  0.59776291  0.33581226
   0.43195153  0.56421861  0.99222519
   0.39532574  0.52197845  0.78367235
   0.58362335  0.01756680  0.63569085
   0.28272277  0.01946114  0.34818845
   0.20593241  0.06947720  0.58445157
   0.25673122  0.06560029  0.98830409
   0.61044495  0.33989512  0.33294314
   0.65530997  0.26469729  0.56378615
   0.05367598  0.61760728  0.69233715
   0.07067104  0.55093295  0.92806353
   0.55546469  0.32025963  0.00992956
   0.10119002  0.64269561  0.36011727
   0.15564550  0.65566195  0.60298725
   0.36757853  0.97085711  0.68795304
   0.40660478  0.00313431  0.92229641
   0.15808841  0.60464773  0.00266142
   0.71370854  0.97759576  0.62118516
   0.78953140  0.93726407  0.37909233
   0.74602060  0.92992988  0.97266905
   0.42907638  0.65546997  0.49023559
   0.33773058  0.73012043  0.32968441
   0.97858333  0.39792409  0.27379181
   0.95858630  0.46637095  0.04113513
   0.39290485  0.68189499  0.91309361
   0.92401772  0.38085362  0.60223051
   0.86960330  0.36611871  0.36375950
   0.63459681  0.99807863  0.28421360
   0.60038893  0.96400975  0.03943333
   0.86843629  0.41381494  0.96625809
   0.99708692  0.74102897  0.66774027
   0.02495573  0.69294642  0.03128796
   0.94586782  0.74270057  0.26146912
   0.29925436  0.92163276  0.64666513
   0.31918492  0.94514502  0.01670974
   0.36325959  0.87018181  0.24275810
   0.02306360  0.60273026  0.33052414
   0.69450485  0.35390484  0.67136416
   0.61221831  0.42479401  0.01106813
   0.68335171  0.40727200  0.25990798
   0.41660218  0.95208310  0.32213591
   0.56029062  0.47821283  0.58072544
   0.54193255  0.55821598  0.76267491
   0.62877058  0.51272816  0.55031205
   0.75553617  0.24646814  0.14875948
   0.08017851  0.22693383  0.22035065
   0.12314487  0.17470164  0.33990295
   0.05833112  0.27497920  0.87831761
   0.09806580  0.22270718  0.01881653
   0.64155074  0.13833190  0.23088475
   0.64168720  0.18372116  0.34431394
   0.62201575  0.10806667  0.89195620
   0.61508829  0.15507870  0.03511274
   0.01171302  0.45858607  0.55901734
   0.02966418  0.49115950  0.68027802
   0.32272334  0.59680214  0.25713941
   0.26503430  0.61799260  0.36772010
   0.38697426  0.55247179  0.94424730
   0.32695736  0.57443543  0.06365493
   0.54531636  0.00011192  0.55526351
   0.49941667  0.99857014  0.67523220
   0.22511732  0.06730904  0.40972028
   0.18276167  0.11966002  0.27057407
   0.20056367  0.11586968  0.06845186
   0.15717488  0.16786539  0.94920927
   0.62706824  0.28507719  0.39733373
   0.61540226  0.24465644  0.27489703
   0.05405991  0.57030576  0.75293715
   0.03389988  0.53959267  0.61151142
   0.58290253  0.26334857  0.08626396
   0.58450446  0.21691789  0.97095184
   0.15263662  0.64081937  0.42682167
   0.20986431  0.61931881  0.29133279
   0.40822278  0.98550379  0.74556085
   0.45625593  0.98241389  0.60539180
   0.21086898  0.60050490  0.09151276
   0.27102159  0.57657959  0.98492010
   0.77368398  0.93599894  0.55450236
   0.82349478  0.88609970  0.69299308
   0.80699692  0.88670971  0.89382458
   0.85667942  0.83883259  0.01531959
   0.37316209  0.71228704  0.48573445
   0.35541982  0.75727027  0.64897197
   0.97695522  0.44598739  0.21495720
   0.99760130  0.47616464  0.35669683
   0.37136965  0.74021567  0.84994096
   0.36389571  0.78583688  0.98054817
   0.87589427  0.37649255  0.54299624
   0.82649900  0.38409149  0.68753659
   0.59666515  0.98147194  0.21602162
   0.54801163  0.98319228  0.35329654
   0.82419637  0.40356373  0.88551524
   0.77170027  0.41131461  0.00201019
   0.93723158  0.78796982  0.74548199
   0.88790028  0.83745625  0.62468242
   0.96577604  0.73974319  0.08776924
   0.92047837  0.78988203  0.94662867
   0.32093630  0.86501438  0.72187034
   0.32791287  0.81915624  0.59211326
   0.34078722  0.88929333  0.06843823
   0.34035238  0.84695951  0.92187972
   0.01996822  0.55694585  0.40939679
   0.00193445  0.52452813  0.28804532
   0.73177102  0.37407303  0.74481030
   0.78232550  0.36765388  0.62591890
   0.67063000  0.41072572  0.07474091
   0.72436298  0.39909086  0.93788251
   0.45777940  0.96666710  0.40240041
   0.50504539  0.96682651  0.28296948
   0.57869623  0.51707191  0.62529423
   0.71419510  0.27515410  0.02555094
   0.10998548  0.17736410  0.49386284
   0.66478219  0.17034185  0.49012236
   0.04056014  0.47798606  0.83445101
   0.26223583  0.63472276  0.51754310
   0.49731586  0.01096972  0.82959666
   0.17084500  0.16495091  0.79569492
   0.56421172  0.22925494  0.82169823
   0.27301729  0.56077796  0.83424536
   0.84422737  0.83940860  0.16872963
   0.37783412  0.77351658  0.13395799
   0.77059718  0.42651525  0.15257941
   0.90000454  0.83709210  0.47086504
   0.31529340  0.83168046  0.43814399
   0.99112789  0.53765037  0.13375099
   0.78985899  0.34606064  0.48077639
   0.50727067  0.95439365  0.12858643
   0.40672353  0.55880015  0.57330771
   0.02021306  0.33670502  0.50448456
   0.63000422  0.05514622  0.51032396
   0.08750747  0.66764878  0.80065855
   0.34724141  0.00231105  0.11896751
   0.27134939  0.00448091  0.77842393
   0.61462816  0.34557211  0.02572346
   0.68007166  0.29337419  0.77854800
   0.08163878  0.60304687  0.12737872
   0.65354350  0.97787651  0.84223024
   0.93929718  0.35245672  0.16652436
   0.44214972  0.60846467  0.73442743
   0.71435781  0.99433334  0.18111500
   0.94692142  0.41497356  0.84034881
   0.39346199  0.64909357  0.17192601
   0.62807670  0.39813286  0.46179556
   0.00802213  0.68049293  0.46548690
   0.35366570  0.93136173  0.44873226
   0.70587074  0.45468097  0.42557687
   0.53247735  0.49279356  0.88167291
Co–organic framework                  
           1
    23.815570    1.661078   -0.184537
    13.234304   22.093720   -0.163563
    -0.044026   -0.023405    6.827568
   O    C    H    Co   Li
  52  66  16  18   2
Direct configuration=     3
   0.02456396  0.27868643  0.30075052
   0.00168415  0.32515053  0.93558166
   0.07946139  0.27048636  0.70527078
   0.66823318  0.08084043  0.31056941
   0.64876234  0.05165081  0.95482119
   0.60356725  0.12294725  0.71450805
   0.00875138  0.41281055  0.63893089
   0.37478113  0.59776342  0.33581073
   0.43195176  0.56421927  0.99222565
   0.39532655  0.52197823  0.78366968
   0.58362288  0.01756438  0.63568912
   0.28272124  0.01946223  0.34818005
   0.20593503  0.06947445  0.58446994
   0.25673043  0.06559760  0.98831644
   0.61044515  0.33989534  0.33294341
   0.65530994  0.26469653  0.56378886
   0.05367641  0.61760735  0.69233617
   0.07067133  0.55093270  0.92806481
   0.55546481  0.32025983  0.00992831
   0.10118990  0.64269557  0.36011676
   0.15564543  0.65566172  0.60298724
   0.36757872  0.97086020  0.68794718
   0.40659600  0.00313805  0.92232029
   0.15808704  0.60464828  0.00266067
   0.71370753  0.97759560  0.62118776
   0.78953163  0.93726385  0.37909096
   0.74602018  0.92992990  0.97266755
   0.42907575  0.65547086  0.49023491
   0.33773037  0.73012081  0.32968360
   0.97858225  0.39792405  0.27379149
   0.95858515  0.46637138  0.04113485
   0.39290356  0.68189862  0.91309098
   0.92401704  0.38085406  0.60222898
   0.86960279  0.36611874  0.36375903
   0.63459537  0.99807836  0.28421203
   0.60038801  0.96400969  0.03943184
   0.86843714  0.41381457  0.96625795
   0.99708745  0.74102811  0.66773957
   0.02495594  0.69294650  0.03128661
   0.94586783  0.74270043  0.26147021
   0.29925844  0.92163143  0.64666746
   0.31918886  0.94513604  0.01670701
   0.36326193  0.87018387  0.24278183
   0.02306367  0.60272951  0.33052410
   0.69450470  0.35390457  0.67136464
   0.61221752  0.42479459  0.01106636
   0.68335217  0.40727122  0.25990807
   0.41660353  0.95207639  0.32213767
   0.56029126  0.47821265  0.58072759
   0.54193185  0.55821621  0.76267659
   0.62877150  0.51272860  0.55031060
   0.75553435  0.24646901  0.14875469
   0.08018132  0.22693118  0.22035357
   0.12314301  0.17470428  0.33989893
   0.05833097  0.27497889  0.87831762
   0.09806587  0.22270732  0.01881577
   0.64155050  0.13833210  0.23088456
   0.64168689  0.18372104  0.34431292
   0.62201598  0.10806697  0.89195861
   0.61508843  0.15507914  0.03511491
   0.01171281  0.45858610  0.55901767
   0.02966363  0.49115965  0.68027676
   0.32272271  0.59680202  0.25713407
   0.26503471  0.61799232  0.36771916
   0.38697250  0.55247213  0.94424881
   0.32695934  0.57443494  0.06365475
   0.54531911  0.00011346  0.55527103
   0.49941533  0.99856992  0.67523017
   0.22511553  0.06731232  0.40971390
   0.18276321  0.11965689  0.27057819
   0.20056451  0.11586776  0.06843492
   0.15717322  0.16786835  0.94921293
   0.62706792  0.28507736  0.39733317
   0.61540193  0.24465623  0.27489815
   0.05406019  0.57030536  0.75293569
   0.03389993  0.53959306  0.61150841
   0.58290249  0.26334782  0.08626374
   0.58450443  0.21691865  0.97095297
   0.15263779  0.64081925  0.42682136
   0.20986418  0.61931860  0.29133408
   0.40822426  0.98549958  0.74554527
   0.45625507  0.98241607  0.60540525
   0.21086845  0.60050445  0.09151498
   0.27102319  0.57657942  0.98492414
   0.77368410  0.93599843  0.55450315
   0.82349426  0.88609959  0.69299423
   0.80699622  0.88671022  0.89382399
   0.85667942  0.83883267  0.01531742
   0.37316354  0.71228510  0.48573236
   0.35541959  0.75727094  0.64896964
   0.97695488  0.44598810  0.21495719
   0.99760182  0.47616466  0.35669791
   0.37137066  0.74021340  0.84994274
   0.36389447  0.78583817  0.98054614
   0.87589424  0.37649292  0.54299964
   0.82649913  0.38409131  0.68753812
   0.59666777  0.98147205  0.21601915
   0.54801097  0.98319024  0.35329178
   0.82419613  0.40356387  0.88551550
   0.77169998  0.41131415  0.00200659
   0.93723182  0.78796923  0.74548208
   0.88790018  0.83745598  0.62468464
   0.96577649  0.73974287  0.08776848
   0.92047833  0.78988190  0.94662911
   0.32093963  0.86501201  0.72186662
   0.32791412  0.81915460  0.59211421
   0.34078149  0.88929991  0.06841564
   0.34035425  0.84695862  0.92188844
   0.01996857  0.55694575  0.40939666
   0.00193500  0.52452805  0.28804881
   0.73177155  0.37407276  0.74481229
   0.78232588  0.36765423  0.62592318
   0.67063054  0.41072585  0.07474018
   0.72436278  0.39909089  0.93788406
   0.45777416  0.96666949  0.40238604
   0.50504770  0.96682733  0.28296868
   0.57869549  0.51707162  0.62529527
   0.71419673  0.27515303  0.02555743
   0.10998485  0.17736448  0.49386528
   0.66478237  0.17034118  0.49012356
   0.04056025  0.47798597  0.83445473
   0.26223613  0.63472264  0.51754595
   0.49731634  0.01096973  0.82960142
   0.17084476  0.16495116  0.79569066
   0.56421030  0.22925580  0.82169650
   0.27301775  0.56077728  0.83423766
   0.84422743  0.83940828  0.16873355
   0.37783444  0.77351627  0.13396103
   0.77059685  0.42651650  0.15258147
   0.90000478  0.83709233  0.47085906
   0.31529314  0.83168070  0.43814021
   0.99112737  0.53765080  0.13374745
   0.78985936  0.34605967  0.48077314
   0.50727101  0.95439343  0.12858138
   0.40672351  0.55879951  0.57330918
   0.02021356  0.33670386  0.50448443
   0.63000398  0.05514756  0.51032535
   0.08750753  0.66764922  0.80065815
   0.34727651  0.00232369  0.11897745
   0.27131334  0.00450241  0.77836946
   0.61462854  0.34557252  0.02572358
   0.68007227  0.29337340  0.77855139
   0.08163864  0.60304702  0.12737831
   0.65354325  0.97787629  0.84222312
   0.93929695  0.35245629  0.16652589
   0.44214950  0.60846488  0.73442645
   0.71435892  0.99433299  0.18111466
   0.94692114  0.41497391  0.84034974
   0.39346182  0.64909337  0.17192713
   0.62807635  0.39813218  0.46179444
   0.00802273  0.68049309  0.46548683
   0.35366980  0.93133632  0.44876863
   0.70587092  0.45467996  0.42557755
   0.53247826  0.49279289  0.88167379
Co–organic framework                  
           1
    23.805970    1.665867   -0.184058
    13.233420   22.093522   -0.163910
    -0.043865   -0.023609    6.827137
   O    C    H    Co   Li
  52  66  16  18   2
Direct configuration=     4
   0.02454525  0.27871280  0.30076202
   0.00166181  0.32516868  0.93561848
   0.07947091  0.27048381  0.70525939
   0.66822839  0.08084230  0.31063157
   0.64876162  0.05164212  0.95482286
   0.60355962  0.12296104  0.71452869
   0.00874882  0.41280519  0.63894883
   0.37479609  0.59776673  0.33580119
   0.43195904  0.56423078  0.99222926
   0.39533631  0.52197198  0.78365339
   0.58366401  0.01755206  0.63573647
   0.28274329  0.01944721  0.34802880
   0.20593794  0.06947763  0.58450621
   0.25677433  0.06548995  0.98837565
   0.61044565  0.33989990  0.33293790
   0.65530713  0.26468501  0.56381702
   0.05368444  0.61760716  0.69232038
   0.07067458  0.55092792  0.92806461
   0.55545840  0.32026467  0.00990508
   0.10117905  0.64269462  0.36008881
   0.15565272  0.65566074  0.60302221
   0.36751976  0.97089329  0.68776755
   0.40650626  0.00317101  0.92219474
   0.15805980  0.60465492  0.00263657
   0.71367289  0.97760702  0.62123236
   0.78954012  0.93725691  0.37908254
   0.74598349  0.92995163  0.97267848
   0.42912686  0.65542497  0.49023146
   0.33771166  0.73013369  0.32961764
   0.97856532  0.39793465  0.27378804
   0.95856426  0.46638504  0.04112124
   0.39290360  0.68189855  0.91311518
   0.92403744  0.38086795  0.60225059
   0.86958823  0.36612253  0.36378283
   0.63462209  0.99809484  0.28425634
   0.60038436  0.96400556  0.03935520
   0.86845545  0.41381476  0.96627100
   0.99711634  0.74100147  0.66771434
   0.02499119  0.69292292  0.03123666
   0.94586043  0.74270353  0.26149268
   0.29930831  0.92160738  0.64671095
   0.31917098  0.94525149  0.01639085
   0.36324426  0.87024446  0.24266117
   0.02306403  0.60273134  0.33050418
   0.69450010  0.35389444  0.67137723
   0.61218426  0.42481092  0.01102455
   0.68336451  0.40725657  0.25992361
   0.41663997  0.95195301  0.32219487
   0.56028882  0.47820217  0.58076066
   0.54192056  0.55822360  0.76273778
   0.62878054  0.51274039  0.55029443
   0.75563597  0.24639118  0.14906358
   0.08013685  0.22698459  0.22033182
   0.12316619  0.17467766  0.34001313
   0.05832616  0.27498384  0.87828732
   0.09803911  0.22273414  0.01888493
   0.64154627  0.13833417  0.23089115
   0.64168867  0.18371882  0.34435767
   0.62201504  0.10807265  0.89196229
   0.61509113  0.15507768  0.03511862
   0.01170917  0.45858461  0.55902161
   0.02966190  0.49116452  0.68032311
   0.32274258  0.59680234  0.25711341
   0.26503677  0.61799458  0.36776630
   0.38699098  0.55246500  0.94420780
   0.32697280  0.57442834  0.06365665
   0.54528907  0.00009693  0.55516164
   0.49944172  0.99859571  0.67538183
   0.22514475  0.06729380  0.40976312
   0.18273471  0.11967512  0.27046208
   0.20056506  0.11583521  0.06852631
   0.15719730  0.16787167  0.94904949
   0.62706756  0.28507496  0.39736857
   0.61539251  0.24465932  0.27490369
   0.05406822  0.57030041  0.75293429
   0.03390332  0.53959070  0.61150741
   0.58289554  0.26335994  0.08627682
   0.58449556  0.21692478  0.97089631
   0.15264353  0.64081941  0.42683026
   0.20985887  0.61931267  0.29133031
   0.40821589  0.98550378  0.74583902
   0.45622227  0.98241199  0.60525285
   0.21086974  0.60049579  0.09155072
   0.27102529  0.57656142  0.98482534
   0.77369460  0.93598534  0.55448701
   0.82347703  0.88610611  0.69300337
   0.80699222  0.88671279  0.89379546
   0.85666257  0.83884183  0.01539505
   0.37313845  0.71231402  0.48573612
   0.35544123  0.75722871  0.64900077
   0.97694694  0.44598883  0.21496811
   0.99760748  0.47615855  0.35670737
   0.37135631  0.74025117  0.84986581
   0.36389868  0.78581959  0.98065350
   0.87587013  0.37649331  0.54295644
   0.82651156  0.38409452  0.68758297
   0.59664476  0.98145056  0.21593812
   0.54807020  0.98319645  0.35341456
   0.82420234  0.40356337  0.88548574
   0.77170063  0.41132499  0.00209910
   0.93723714  0.78795792  0.74550416
   0.88791665  0.83744462  0.62459218
   0.96576168  0.73975369  0.08779678
   0.92049484  0.78986774  0.94660939
   0.32100115  0.86496637  0.72195689
   0.32791618  0.81916687  0.59200880
   0.34083401  0.88921838  0.06885216
   0.34036155  0.84695148  0.92182064
   0.01997613  0.55694599  0.40940879
   0.00193385  0.52453020  0.28797917
   0.73176311  0.37406949  0.74486963
   0.78233383  0.36763663  0.62585711
   0.67063520  0.41072615  0.07476330
   0.72435359  0.39908397  0.93786825
   0.45772862  0.96671120  0.40243847
   0.50499680  0.96681940  0.28282357
   0.57870752  0.51707154  0.62528839
   0.71410568  0.27521785  0.02529634
   0.10997169  0.17737849  0.49385865
   0.66478399  0.17032982  0.49013546
   0.04055859  0.47798869  0.83447571
   0.26224408  0.63471686  0.51756466
   0.49732472  0.01096322  0.82962887
   0.17083142  0.16496290  0.79567693
   0.56418896  0.22926972  0.82169234
   0.27302595  0.56077710  0.83421705
   0.84423012  0.83940459  0.16875005
   0.37783392  0.77351599  0.13396389
   0.77059111  0.42653187  0.15255140
   0.90000492  0.83709456  0.47083189
   0.31529374  0.83167956  0.43812228
   0.99112321  0.53765306  0.13375235
   0.78986292  0.34605413  0.48078957
   0.50728421  0.95439242  0.12853366
   0.40672155  0.55879186  0.57329920
   0.02022615  0.33668746  0.50447827
   0.62999493  0.05517663  0.51035358
   0.08751088  0.66765574  0.80064576
   0.34776141  0.00251763  0.11917418
   0.27077553  0.00482541  0.77770419
   0.61462747  0.34558876  0.02572970
   0.68008256  0.29335799  0.77858745
   0.08163628  0.60304463  0.12737525
   0.65353729  0.97786904  0.84213193
   0.93928380  0.35245226  0.16655453
   0.44213644  0.60847108  0.73442287
   0.71438110  0.99432834  0.18110836
   0.94691406  0.41498531  0.84036026
   0.39346125  0.64909032  0.17192731
   0.62807119  0.39811981  0.46176942
   0.00802657  0.68049502  0.46548635
   0.35372085  0.93094399  0.44925219
   0.70588001  0.45465929  0.42558020
   0.53248981  0.49278309  0.88169195
Co–organic framework                  
           1
    23.800954    1.668369   -0.183808
    13.232958   22.093419   -0.164091
    -0.043781   -0.023717    6.826912
   O    C    H    Co   Li
  52  66  16  18   2
Direct configuration=     5
   0.02453547  0.27872657  0.30076804
   0.00165012  0.32517817  0.93563772
   0.07947589  0.27048248  0.70525344
   0.66822589  0.08084328  0.31066404
   0.64876123  0.05163757  0.95482373
   0.60355563  0.12296824  0.71453947
   0.00874748  0.41280239  0.63895820
   0.37480391  0.59776846  0.33579620
   0.43196285  0.56423679  0.99223115
   0.39534141  0.52196871  0.78364488
   0.58368551  0.01754562  0.63576120
   0.28275482  0.01943935  0.34794977
   0.20593946  0.06947929  0.58452516
   0.25679728  0.06543370  0.98840658
   0.61044591  0.33990228  0.33293502
   0.65530565  0.26467899  0.56383173
   0.05368864  0.61760706  0.69231214
   0.07067628  0.55092543  0.92806450
   0.55545505  0.32026720  0.00989294
   0.10117338  0.64269413  0.36007421
   0.15565652  0.65566023  0.60304049
   0.36748894  0.97091059  0.68767369
   0.40645936  0.00318824  0.92212914
   0.15804555  0.60465839  0.00262398
   0.71365479  0.97761299  0.62125566
   0.78954456  0.93725328  0.37907814
   0.74596431  0.92996299  0.97268419
   0.42915357  0.65540099  0.49022965
   0.33770189  0.73014042  0.32958317
   0.97855647  0.39794019  0.27378624
   0.95855333  0.46639217  0.04111414
   0.39290363  0.68189851  0.91312782
   0.92404811  0.38087520  0.60226188
   0.86958062  0.36612452  0.36379527
   0.63463606  0.99810345  0.28427949
   0.60038245  0.96400340  0.03931516
   0.86846502  0.41381485  0.96627782
   0.99713144  0.74098754  0.66770116
   0.02500962  0.69291059  0.03121056
   0.94585656  0.74270515  0.26150442
   0.29933438  0.92159480  0.64673366
   0.31916164  0.94531181  0.01622566
   0.36323503  0.87027612  0.24259812
   0.02306421  0.60273229  0.33049377
   0.69449770  0.35388916  0.67138380
   0.61216687  0.42481946  0.01100271
   0.68337096  0.40724891  0.25993172
   0.41665902  0.95188854  0.32222475
   0.56028754  0.47819669  0.58077793
   0.54191465  0.55822746  0.76276974
   0.62878526  0.51274656  0.55028598
   0.75568908  0.24635050  0.14922497
   0.08011361  0.22701249  0.22032046
   0.12317830  0.17466375  0.34007279
   0.05832365  0.27498643  0.87827148
   0.09802512  0.22274816  0.01892107
   0.64154406  0.13833525  0.23089460
   0.64168961  0.18371766  0.34438106
   0.62201454  0.10807561  0.89196421
   0.61509254  0.15507691  0.03512056
   0.01170726  0.45858383  0.55902367
   0.02966099  0.49116706  0.68034733
   0.32275296  0.59680250  0.25710262
   0.26503785  0.61799576  0.36779093
   0.38700065  0.55246127  0.94418637
   0.32697983  0.57442489  0.06365764
   0.54527337  0.00008831  0.55510448
   0.49945551  0.99860918  0.67546108
   0.22516002  0.06728411  0.40978884
   0.18271982  0.11968464  0.27040141
   0.20056535  0.11581821  0.06857406
   0.15720989  0.16787340  0.94896409
   0.62706738  0.28507371  0.39738706
   0.61538758  0.24466093  0.27490658
   0.05407242  0.57029782  0.75293356
   0.03390510  0.53958947  0.61150688
   0.58289191  0.26336628  0.08628366
   0.58449092  0.21692798  0.97086671
   0.15264653  0.64081949  0.42683491
   0.20985609  0.61930958  0.29132833
   0.40821151  0.98550597  0.74599250
   0.45620512  0.98240986  0.60517323
   0.21087041  0.60049126  0.09156939
   0.27102639  0.57655201  0.98477372
   0.77370008  0.93597850  0.55447858
   0.82346803  0.88610952  0.69300814
   0.80699013  0.88671413  0.89378055
   0.85665376  0.83884663  0.01543561
   0.37312534  0.71232914  0.48573809
   0.35545254  0.75720664  0.64901704
   0.97694278  0.44598922  0.21497382
   0.99761045  0.47615535  0.35671231
   0.37134881  0.74027091  0.84982562
   0.36390089  0.78580988  0.98070959
   0.87585753  0.37649352  0.54293388
   0.82651806  0.38409619  0.68760640
   0.59663274  0.98143933  0.21589578
   0.54810116  0.98319969  0.35347871
   0.82420559  0.40356311  0.88547019
   0.77170098  0.41133065  0.00214743
   0.93723992  0.78795201  0.74551570
   0.88792526  0.83743869  0.62454386
   0.96575394  0.73975934  0.08781157
   0.92050346  0.78986034  0.94659909
   0.32103331  0.86494253  0.72200406
   0.32791726  0.81917328  0.59195373
   0.34086147  0.88917577  0.06908023
   0.34036537  0.84694775  0.92178522
   0.01998008  0.55694612  0.40941513
   0.00193326  0.52453133  0.28794278
   0.73175870  0.37406779  0.74489959
   0.78233799  0.36762744  0.62582259
   0.67063764  0.41072631  0.07477538
   0.72434879  0.39908036  0.93785999
   0.45770482  0.96673299  0.40246587
   0.50497020  0.96681527  0.28274775
   0.57871381  0.51707150  0.62528479
   0.71405809  0.27525173  0.02515993
   0.10996482  0.17738581  0.49385519
   0.66478484  0.17032389  0.49014167
   0.04055772  0.47799011  0.83448666
   0.26224824  0.63471384  0.51757444
   0.49732910  0.01095983  0.82964321
   0.17082444  0.16496903  0.79566976
   0.56417781  0.22927699  0.82169016
   0.27303024  0.56077700  0.83420627
   0.84423152  0.83940267  0.16875867
   0.37783365  0.77351585  0.13396539
   0.77058811  0.42653990  0.15253569
   0.90000500  0.83709573  0.47081770
   0.31529405  0.83167896  0.43811292
   0.99112103  0.53765424  0.13375492
   0.78986478  0.34605123  0.48079816
   0.50729111  0.95439190  0.12850872
   0.40672053  0.55878785  0.57329399
   0.02023273  0.33667888  0.50447505
   0.62999020  0.05519181  0.51036833
   0.08751263  0.66765914  0.80063929
   0.34801489  0.00261890  0.11927697
   0.27049440  0.00499423  0.77735661
   0.61462692  0.34559724  0.02573290