  170  170 1000    2
  0.2342494E+02  0.2598693E-08  0.2598599E-08  0.6809832E-09  0.5000000E-15
  1.000000000000000E-004
  CAR 
 Co–organic framework                  
    826      1    526
