       N       E                     dE             d eps       ncg     rms          rms(c)
DAV:   1     0.892999878618E+04    0.89300E+04   -0.35341E+05  2120   0.136E+03
DAV:   2     0.850432926336E+03   -0.80796E+04   -0.73133E+04  2456   0.424E+02
DAV:   3    -0.128254547546E+04   -0.21330E+04   -0.20094E+04  3512   0.215E+02
DAV:   4    -0.145592743864E+04   -0.17338E+03   -0.16091E+03  3248   0.681E+01
DAV:   5    -0.146523939937E+04   -0.93120E+01   -0.85428E+01  3488   0.154E+01    0.162E+02
RMM:   6    -0.198082520631E+04   -0.51559E+03   -0.35435E+03  2874   0.134E+02    0.528E+02
RMM:   7    -0.173579600645E+04    0.24503E+03   -0.26965E+02  2124   0.464E+01    0.320E+02
RMM:   8    -0.128572746060E+04    0.45007E+03   -0.56702E+02  2349   0.467E+01    0.106E+02
RMM:   9    -0.140915493931E+04   -0.12343E+03   -0.17337E+02  2372   0.246E+01    0.173E+02
RMM:  10    -0.150690759496E+04   -0.97753E+02   -0.64232E+01  2389   0.168E+01    0.186E+02
RMM:  11    -0.135010517068E+04    0.15680E+03   -0.49911E+01  2227   0.146E+01    0.128E+02
RMM:  12    -0.143286530185E+04   -0.82760E+02   -0.59707E+01  2180   0.165E+01    0.146E+02
RMM:  13    -0.145731141050E+04   -0.24446E+02   -0.70896E+01  2165   0.180E+01    0.169E+02
RMM:  14    -0.132989820719E+04    0.12741E+03   -0.51861E+01  2188   0.153E+01    0.126E+02
RMM:  15    -0.128198944895E+04    0.47909E+02   -0.54485E+01  2177   0.145E+01    0.105E+02
RMM:  16    -0.130790203947E+04   -0.25913E+02   -0.38670E+01  2290   0.120E+01    0.115E+02
RMM:  17    -0.123442116030E+04    0.73481E+02   -0.25288E+01  2312   0.999E+00    0.853E+01
RMM:  18    -0.123083324584E+04    0.35879E+01   -0.17737E+01  2307   0.766E+00    0.859E+01
RMM:  19    -0.123459253857E+04   -0.37593E+01   -0.84422E+00  2385   0.514E+00    0.840E+01
RMM:  20    -0.121859487112E+04    0.15998E+02   -0.61577E+00  2312   0.475E+00    0.570E+01
RMM:  21    -0.122000559694E+04   -0.14107E+01   -0.40432E+00  2311   0.393E+00    0.604E+01
RMM:  22    -0.121609736052E+04    0.39082E+01   -0.33220E+00  2248   0.369E+00    0.494E+01
RMM:  23    -0.121638530759E+04   -0.28795E+00   -0.16482E+00  2286   0.258E+00    0.379E+01
RMM:  24    -0.121697604112E+04   -0.59073E+00   -0.44730E-01  2309   0.141E+00    0.330E+01
RMM:  25    -0.122024455200E+04   -0.32685E+01   -0.10805E+00  2241   0.189E+00    0.437E+01
RMM:  26    -0.121912699527E+04    0.11176E+01   -0.60698E-01  2241   0.158E+00    0.372E+01
RMM:  27    -0.121916852270E+04   -0.41527E-01   -0.16086E-01  2201   0.843E-01    0.367E+01
RMM:  28    -0.121919719409E+04   -0.28671E-01   -0.11970E-01  2257   0.682E-01    0.379E+01
RMM:  29    -0.121943327755E+04   -0.23608E+00   -0.70602E-02  2248   0.532E-01    0.395E+01
RMM:  30    -0.121954665498E+04   -0.11338E+00   -0.27277E-02  2346   0.327E-01    0.406E+01
RMM:  31    -0.121962474391E+04   -0.78089E-01   -0.14099E-01  2202   0.715E-01    0.405E+01
RMM:  32    -0.121957804366E+04    0.46700E-01   -0.78589E-02  2203   0.607E-01    0.387E+01
RMM:  33    -0.122259941090E+04   -0.30214E+01   -0.79192E-01  2222   0.164E+00    0.489E+01
RMM:  34    -0.122391442436E+04   -0.13150E+01   -0.90292E-01  2215   0.189E+00    0.462E+01
RMM:  35    -0.122480890472E+04   -0.89448E+00   -0.64629E-01  2317   0.151E+00    0.465E+01
RMM:  36    -0.122569472460E+04   -0.88582E+00   -0.51596E-01  2270   0.127E+00    0.423E+01
RMM:  37    -0.122729589951E+04   -0.16012E+01   -0.55249E-01  2333   0.132E+00    0.429E+01
RMM:  38    -0.122809554669E+04   -0.79965E+00   -0.46573E-01  2306   0.133E+00    0.412E+01
RMM:  39    -0.123001453577E+04   -0.19190E+01   -0.48991E-01  2267   0.129E+00    0.415E+01
RMM:  40    -0.123163303952E+04   -0.16185E+01   -0.51105E-01  2352   0.123E+00    0.383E+01
RMM:  41    -0.123580275647E+04   -0.41697E+01   -0.16319E+00  2167   0.212E+00    0.382E+01
RMM:  42    -0.123827877372E+04   -0.24760E+01   -0.70368E-01  2387   0.141E+00    0.422E+01
RMM:  43    -0.123822996883E+04    0.48805E-01   -0.40298E-01  2458   0.100E+00    0.384E+01
RMM:  44    -0.123975470825E+04   -0.15247E+01   -0.73543E-01  2266   0.144E+00    0.387E+01
RMM:  45    -0.123962133559E+04    0.13337E+00   -0.28507E-01  2390   0.955E-01    0.370E+01
RMM:  46    -0.124145316207E+04   -0.18318E+01   -0.12757E+00  2175   0.192E+00    0.349E+01
RMM:  47    -0.124197982957E+04   -0.52667E+00   -0.75840E-01  2399   0.151E+00    0.325E+01
RMM:  48    -0.124263185324E+04   -0.65202E+00   -0.47113E-01  2408   0.104E+00    0.335E+01
RMM:  49    -0.124273658972E+04   -0.10474E+00   -0.12101E-01  2398   0.629E-01    0.327E+01
RMM:  50    -0.124262285791E+04    0.11373E+00   -0.14390E-01  2294   0.558E-01    0.304E+01
RMM:  51    -0.124466530225E+04   -0.20424E+01   -0.40468E+00  2158   0.395E+00    0.377E+01
RMM:  52    -0.124475116674E+04   -0.85864E-01   -0.72097E-01  2235   0.181E+00    0.329E+01
RMM:  53    -0.124447462304E+04    0.27654E+00   -0.28372E-01  2398   0.915E-01    0.297E+01
RMM:  54    -0.124425936675E+04    0.21526E+00   -0.19287E-01  2235   0.767E-01    0.266E+01
RMM:  55    -0.124444842831E+04   -0.18906E+00   -0.11724E-01  2467   0.564E-01    0.259E+01
RMM:  56    -0.124587290158E+04   -0.14245E+01   -0.10136E+00  2193   0.179E+00    0.375E+01
RMM:  57    -0.124548666808E+04    0.38623E+00   -0.32365E-01  2216   0.134E+00    0.340E+01
RMM:  58    -0.124561106075E+04   -0.12439E+00   -0.80609E-02  2459   0.511E-01    0.324E+01
RMM:  59    -0.124560885426E+04    0.22065E-02   -0.40943E-02  2240   0.388E-01    0.312E+01
RMM:  60    -0.124541693756E+04    0.19192E+00   -0.85589E-02  2261   0.555E-01    0.326E+01
RMM:  61    -0.124491121078E+04    0.50573E+00   -0.77084E-01  2196   0.179E+00    0.307E+01
RMM:  62    -0.124496000906E+04   -0.48798E-01   -0.40995E-01  2158   0.151E+00    0.278E+01
RMM:  63    -0.124507794289E+04   -0.11793E+00   -0.23921E-01  2300   0.966E-01    0.276E+01
RMM:  64    -0.124493148837E+04    0.14645E+00   -0.23289E-01  2221   0.967E-01    0.220E+01
RMM:  65    -0.124576496943E+04   -0.83348E+00   -0.31914E-01  2226   0.111E+00    0.255E+01
RMM:  66    -0.124608244633E+04   -0.31748E+00   -0.80960E-01  2216   0.172E+00    0.319E+01
RMM:  67    -0.124562285743E+04    0.45959E+00   -0.31696E-01  2240   0.124E+00    0.228E+01
RMM:  68    -0.124593350867E+04   -0.31065E+00   -0.11131E-01  2302   0.676E-01    0.212E+01
RMM:  69    -0.124625570770E+04   -0.32220E+00   -0.14710E-01  2221   0.782E-01    0.194E+01
RMM:  70    -0.124646361499E+04   -0.20791E+00   -0.95599E-02  2312   0.615E-01    0.196E+01
RMM:  71    -0.124722579881E+04   -0.76218E+00   -0.37097E-01  2251   0.121E+00    0.249E+01
RMM:  72    -0.124685566669E+04    0.37013E+00   -0.16310E-01  2207   0.987E-01    0.208E+01
RMM:  73    -0.124659204025E+04    0.26363E+00   -0.58819E-02  2306   0.466E-01    0.180E+01
RMM:  74    -0.124661295364E+04   -0.20913E-01   -0.24759E-02  2270   0.314E-01    0.175E+01
RMM:  75    -0.124671484846E+04   -0.10189E+00   -0.83529E-02  2209   0.548E-01    0.153E+01
RMM:  76    -0.124853519579E+04   -0.18203E+01   -0.67492E-01  2259   0.165E+00    0.276E+01
RMM:  77    -0.124797907258E+04    0.55612E+00   -0.29559E-01  2272   0.119E+00    0.235E+01
RMM:  78    -0.124803721833E+04   -0.58146E-01   -0.54993E-02  2435   0.440E-01    0.226E+01
RMM:  79    -0.124814208880E+04   -0.10487E+00   -0.14490E-01  2217   0.705E-01    0.188E+01
RMM:  80    -0.124845820808E+04   -0.31612E+00   -0.12498E-01  2260   0.662E-01    0.170E+01
RMM:  81    -0.124948321753E+04   -0.10250E+01   -0.35319E-01  2200   0.120E+00    0.238E+01
RMM:  82    -0.124950516108E+04   -0.21944E-01   -0.17125E-01  2205   0.952E-01    0.236E+01
RMM:  83    -0.124944251598E+04    0.62645E-01   -0.13670E-01  2398   0.653E-01    0.152E+01
RMM:  84    -0.124975370526E+04   -0.31119E+00   -0.12450E-01  2182   0.727E-01    0.163E+01
RMM:  85    -0.124983248795E+04   -0.78783E-01   -0.49689E-02  2360   0.443E-01    0.160E+01
RMM:  86    -0.125010440396E+04   -0.27192E+00   -0.16737E-01  2162   0.723E-01    0.170E+01
RMM:  87    -0.124996240574E+04    0.14200E+00   -0.84991E-02  2261   0.593E-01    0.105E+01
RMM:  88    -0.125026365951E+04   -0.30125E+00   -0.70640E-02  2293   0.514E-01    0.102E+01
RMM:  89    -0.125036156991E+04   -0.97910E-01   -0.32366E-02  2263   0.397E-01    0.110E+01
RMM:  90    -0.125035278666E+04    0.87833E-02   -0.10672E-02  2587   0.184E-01    0.113E+01
RMM:  91    -0.125042516815E+04   -0.72381E-01   -0.23632E-02  2228   0.314E-01    0.132E+01
RMM:  92    -0.125045562943E+04   -0.30461E-01   -0.13404E-02  2266   0.248E-01    0.134E+01
RMM:  93    -0.125046814293E+04   -0.12513E-01   -0.56724E-03  2154   0.170E-01    0.132E+01
RMM:  94    -0.125047699504E+04   -0.88521E-02   -0.36114E-03  2355   0.121E-01    0.130E+01
RMM:  95    -0.125055407076E+04   -0.77076E-01   -0.64316E-03  2126   0.158E-01    0.132E+01
RMM:  96    -0.125046964316E+04    0.84428E-01   -0.98047E-02  2192   0.628E-01    0.139E+01
RMM:  97    -0.125050164584E+04   -0.32003E-01   -0.26777E-02  2225   0.355E-01    0.149E+01
RMM:  98    -0.125063735593E+04   -0.13571E+00   -0.25439E-02  2125   0.338E-01    0.143E+01
RMM:  99    -0.125092302782E+04   -0.28567E+00   -0.40558E-02  2214   0.382E-01    0.151E+01
RMM: 100    -0.125100919327E+04   -0.86165E-01   -0.21510E-02  2437   0.258E-01    0.150E+01
RMM: 101    -0.125106342527E+04   -0.54232E-01   -0.37878E-02  2268   0.382E-01    0.128E+01
RMM: 102    -0.125116529767E+04   -0.10187E+00   -0.27028E-02  2191   0.370E-01    0.123E+01
RMM: 103    -0.125123650546E+04   -0.71208E-01   -0.10307E-02  2391   0.194E-01    0.126E+01
RMM: 104    -0.125126182488E+04   -0.25319E-01   -0.62605E-03  2299   0.150E-01    0.125E+01
RMM: 105    -0.125127922220E+04   -0.17397E-01   -0.10926E-02  2173   0.199E-01    0.134E+01
RMM: 106    -0.125111303467E+04    0.16619E+00   -0.14379E-01  2156   0.749E-01    0.200E+01
RMM: 107    -0.125098626091E+04    0.12677E+00   -0.88409E-02  2215   0.704E-01    0.201E+01
RMM: 108    -0.125089805955E+04    0.88201E-01   -0.21533E-02  2282   0.323E-01    0.188E+01
RMM: 109    -0.125085484891E+04    0.43211E-01   -0.17349E-02  2308   0.245E-01    0.134E+01
RMM: 110    -0.125096977134E+04   -0.11492E+00   -0.28893E-02  2160   0.372E-01    0.123E+01
RMM: 111    -0.125143986761E+04   -0.47010E+00   -0.26809E-01  2180   0.104E+00    0.161E+01
RMM: 112    -0.125181694769E+04   -0.37708E+00   -0.12968E-01  2307   0.736E-01    0.197E+01
RMM: 113    -0.125174488990E+04    0.72058E-01   -0.57207E-02  2389   0.473E-01    0.194E+01
RMM: 114    -0.125175881437E+04   -0.13924E-01   -0.15761E-02  2450   0.218E-01    0.195E+01
RMM: 115    -0.125168627343E+04    0.72541E-01   -0.12690E-02  2316   0.204E-01    0.180E+01
RMM: 116    -0.125179701402E+04   -0.11074E+00   -0.66360E-02  2145   0.534E-01    0.172E+01
RMM: 117    -0.125190690255E+04   -0.10989E+00   -0.26449E-02  2289   0.350E-01    0.179E+01
RMM: 118    -0.125210089755E+04   -0.19399E+00   -0.18251E-02  2335   0.235E-01    0.181E+01
RMM: 119    -0.125220589813E+04   -0.10500E+00   -0.21122E-02  2428   0.243E-01    0.173E+01
RMM: 120    -0.125224926182E+04   -0.43364E-01   -0.51365E-03  2613   0.115E-01
   1 F= -.12606860E+04 E0= -.12606700E+04  d E =-.126069E+04  mag=    40.3173
       N       E                     dE             d eps       ncg     rms          rms(c)
DAV:   1    -0.124700115048E+04    0.52047E+01   -0.11729E+03  2148   0.775E+01    0.235E+01
RMM:   2    -0.130863831345E+04   -0.61637E+02   -0.72837E+01  2213   0.193E+01    0.104E+02
RMM:   3    -0.126232020002E+04    0.46318E+02   -0.32659E+01  2285   0.140E+01    0.575E+01
RMM:   4    -0.125130998767E+04    0.11010E+02   -0.71371E+00  2548   0.607E+00    0.329E+01
RMM:   5    -0.125455027584E+04   -0.32403E+01   -0.59156E+00  2319   0.481E+00    0.497E+01
RMM:   6    -0.125242837800E+04    0.21219E+01   -0.27710E+00  2392   0.354E+00    0.363E+01
RMM:   7    -0.124948736174E+04    0.29410E+01   -0.12751E+00  2324   0.240E+00    0.226E+01
RMM:   8    -0.124986723653E+04   -0.37987E+00   -0.73490E-01  2321   0.174E+00    0.205E+01
RMM:   9    -0.124979761978E+04    0.69617E-01   -0.49568E-01  2353   0.154E+00    0.188E+01
RMM:  10    -0.125023929970E+04   -0.44168E+00   -0.68806E-01  2324   0.174E+00    0.211E+01
RMM:  11    -0.124954130375E+04    0.69800E+00   -0.53496E-01  2343   0.162E+00    0.106E+01
RMM:  12    -0.124952776358E+04    0.13540E-01   -0.28902E-01  2396   0.113E+00    0.984E+00
RMM:  13    -0.124951440841E+04    0.13355E-01   -0.18528E-01  2394   0.936E-01    0.829E+00
RMM:  14    -0.124962207324E+04   -0.10766E+00   -0.23043E-01  2306   0.101E+00    0.878E+00
RMM:  15    -0.124952628907E+04    0.95784E-01   -0.19580E-01  2283   0.972E-01    0.896E+00
RMM:  16    -0.124947520939E+04    0.51080E-01   -0.17645E-01  2313   0.869E-01    0.654E+00
RMM:  17    -0.124948076145E+04   -0.55521E-02   -0.14864E-01  2309   0.837E-01    0.839E+00
RMM:  18    -0.124943490333E+04    0.45858E-01   -0.13111E-01  2287   0.804E-01    0.485E+00
RMM:  19    -0.124948269460E+04   -0.47791E-01   -0.66023E-02  2331   0.525E-01    0.488E+00
RMM:  20    -0.124950643435E+04   -0.23740E-01   -0.47586E-02  2344   0.445E-01    0.394E+00
RMM:  21    -0.124958360091E+04   -0.77167E-01   -0.43471E-02  2314   0.419E-01    0.428E+00
RMM:  22    -0.124963450695E+04   -0.50906E-01   -0.30322E-02  2253   0.396E-01    0.412E+00
RMM:  23    -0.124964106448E+04   -0.65575E-02   -0.14091E-02  2301   0.246E-01    0.325E+00
RMM:  24    -0.124965194111E+04   -0.10877E-01   -0.50827E-03  2420   0.141E-01    0.273E+00
RMM:  25    -0.124965402021E+04   -0.20791E-02   -0.11145E-03  2442   0.598E-02    0.258E+00
RMM:  26    -0.124964747188E+04    0.65483E-02   -0.94358E-04  2278   0.639E-02    0.265E+00
RMM:  27    -0.124963948050E+04    0.79914E-02   -0.65764E-04  2266   0.547E-02    0.254E+00
RMM:  28    -0.124964605810E+04   -0.65776E-02   -0.16455E-04  2114   0.261E-02    0.259E+00
RMM:  29    -0.124968832814E+04   -0.42270E-01   -0.61440E-03  2173   0.156E-01    0.217E+00
RMM:  30    -0.124980226398E+04   -0.11394E+00   -0.23731E-02  2163   0.294E-01    0.174E+00
RMM:  31    -0.124989426728E+04   -0.92003E-01   -0.12802E-02  2177   0.227E-01    0.236E+00
RMM:  32    -0.124992888947E+04   -0.34622E-01   -0.61322E-03  2438   0.151E-01    0.177E+00
RMM:  33    -0.124996821961E+04   -0.39330E-01   -0.39829E-03  2333   0.120E-01    0.958E-01
RMM:  34    -0.125005839434E+04   -0.90175E-01   -0.51139E-03  2165   0.115E-01    0.896E-01
RMM:  35    -0.125014750227E+04   -0.89108E-01   -0.55783E-03  2390   0.115E-01    0.105E+00
RMM:  36    -0.125022665431E+04   -0.79152E-01   -0.39531E-03  2420   0.850E-02    0.378E-01
RMM:  37    -0.125029474622E+04   -0.68092E-01   -0.24871E-03  2489   0.653E-02    0.394E-01
RMM:  38    -0.125036697872E+04   -0.72233E-01   -0.25472E-03  2415   0.610E-02    0.426E-01
RMM:  39    -0.125042229463E+04   -0.55316E-01   -0.20660E-03  2596   0.463E-02    0.179E-01
RMM:  40    -0.125046964104E+04   -0.47346E-01   -0.19111E-03  2426   0.410E-02    0.133E-01
RMM:  41    -0.125050418580E+04   -0.34545E-01   -0.18652E-03  2545   0.421E-02    0.112E-01
RMM:  42    -0.125052358089E+04   -0.19395E-01   -0.13726E-03  2490   0.357E-02    0.195E-01
RMM:  43    -0.125053023071E+04   -0.66498E-02   -0.50545E-04  2490   0.262E-02    0.768E-02
RMM:  44    -0.125053320889E+04   -0.29782E-02   -0.22502E-04  2440   0.143E-02    0.456E-02
RMM:  45    -0.125053542478E+04   -0.22159E-02   -0.12873E-04  2333   0.123E-02    0.352E-02
RMM:  46    -0.125053669281E+04   -0.12680E-02   -0.85393E-05  2207   0.879E-03    0.279E-02
RMM:  47    -0.125053693943E+04   -0.24662E-03   -0.19794E-05  1829   0.729E-03    0.578E-02
RMM:  48    -0.125053744099E+04   -0.50156E-03   -0.28269E-05  1974   0.601E-03    0.220E-02
RMM:  49    -0.125053761194E+04   -0.17095E-03   -0.11912E-05  1787   0.420E-03    0.198E-02
RMM:  50    -0.125053768902E+04   -0.77074E-04   -0.74824E-06  1647   0.278E-03    0.112E-02
RMM:  51    -0.125053771854E+04   -0.29522E-04   -0.25426E-06  1397   0.257E-03    0.112E-02
RMM:  52    -0.125053774067E+04   -0.22128E-04   -0.27844E-06  1439   0.216E-03    0.186E-02
RMM:  53    -0.125053774006E+04    0.60318E-06   -0.77877E-07  1255   0.186E-03
   2 F= -.12590026E+04 E0= -.12589893E+04  d E =0.168343E+01  mag=    42.6523
       N       E                     dE             d eps       ncg     rms          rms(c)
DAV:   1    -0.125227005650E+04   -0.17323E+01   -0.47872E+02  2202   0.504E+01    0.855E+00
RMM:   2    -0.125351955848E+04   -0.12495E+01   -0.12884E+01  2530   0.726E+00    0.649E+00
RMM:   3    -0.125425944965E+04   -0.73989E+00   -0.20395E+00  2428   0.328E+00    0.170E+01
RMM:   4    -0.125373534463E+04    0.52411E+00   -0.80618E-01  2545   0.192E+00    0.173E+01
RMM:   5    -0.125333355139E+04    0.40179E+00   -0.25545E-01  2495   0.976E-01    0.513E+00
RMM:   6    -0.125339641931E+04   -0.62868E-01   -0.14732E-01  2315   0.829E-01    0.354E+00
RMM:   7    -0.125341184787E+04   -0.15429E-01   -0.12072E-01  2550   0.664E-01    0.475E+00
RMM:   8    -0.125338448581E+04    0.27362E-01   -0.10175E-01  2405   0.651E-01    0.337E+00
RMM:   9    -0.125339412004E+04   -0.96342E-02   -0.93882E-02  2422   0.624E-01    0.389E+00
RMM:  10    -0.125336646322E+04    0.27657E-01   -0.38228E-02  2388   0.426E-01    0.149E+00
RMM:  11    -0.125337544180E+04   -0.89786E-02   -0.16343E-02  2323   0.277E-01    0.179E+00
RMM:  12    -0.125336921312E+04    0.62287E-02   -0.86633E-03  2375   0.195E-01    0.105E+00
RMM:  13    -0.125336815102E+04    0.10621E-02   -0.27523E-03  2342   0.109E-01    0.527E-01
RMM:  14    -0.125336943654E+04   -0.12855E-02   -0.21269E-03  2347   0.956E-02    0.736E-01
RMM:  15    -0.125336889061E+04    0.54593E-03   -0.11716E-03  2337   0.747E-02    0.500E-01
RMM:  16    -0.125336959115E+04   -0.70054E-03   -0.70837E-04  2288   0.505E-02    0.574E-01
RMM:  17    -0.125337002304E+04   -0.43189E-03   -0.75113E-04  2204   0.602E-02    0.634E-01
RMM:  18    -0.125336999468E+04    0.28358E-04   -0.91725E-04  2320   0.614E-02    0.443E-01
RMM:  19    -0.125337053971E+04   -0.54503E-03   -0.58840E-04  2326   0.541E-02    0.268E-01
RMM:  20    -0.125337105566E+04   -0.51595E-03   -0.22862E-04  2323   0.347E-02    0.225E-01
RMM:  21    -0.125337112243E+04   -0.66767E-04   -0.11263E-04  2212   0.216E-02    0.197E-01
RMM:  22    -0.125337126864E+04   -0.14621E-03   -0.60508E-05  1959   0.158E-02    0.251E-01
RMM:  23    -0.125337121459E+04    0.54052E-04   -0.50916E-05  1917   0.143E-02    0.153E-01
RMM:  24    -0.125337138895E+04   -0.17436E-03   -0.34635E-05  1865   0.114E-02    0.166E-01
RMM:  25    -0.125337154269E+04   -0.15374E-03   -0.26637E-05  1866   0.101E-02    0.169E-01
RMM:  26    -0.125337187991E+04   -0.33722E-03   -0.29102E-05  1959   0.978E-03    0.143E-01
RMM:  27    -0.125337213431E+04   -0.25440E-03   -0.44335E-05  1979   0.129E-02    0.159E-01
RMM:  28    -0.125337264190E+04   -0.50759E-03   -0.63851E-05  1979   0.158E-02    0.104E-01
RMM:  29    -0.125337366824E+04   -0.10263E-02   -0.17447E-04  2062   0.235E-02    0.837E-02
RMM:  30    -0.125337416720E+04   -0.49896E-03   -0.11574E-04  2176   0.195E-02    0.142E-01
RMM:  31    -0.125337446077E+04   -0.29357E-03   -0.64269E-05  2083   0.145E-02    0.948E-02
RMM:  32    -0.125337472504E+04   -0.26427E-03   -0.31127E-05  2016   0.892E-03    0.731E-02
RMM:  33    -0.125337507441E+04   -0.34937E-03   -0.30495E-05  1979   0.983E-03    0.377E-02
RMM:  34    -0.125337524791E+04   -0.17350E-03   -0.17795E-05  1818   0.721E-03    0.392E-02
RMM:  35    -0.125337550921E+04   -0.26130E-03   -0.24433E-05  2000   0.747E-03    0.387E-02
RMM:  36    -0.125337560714E+04   -0.97937E-04   -0.10226E-05  1660   0.531E-03    0.396E-02
RMM:  37    -0.125337543366E+04    0.17349E-03   -0.10459E-05  1621   0.765E-03    0.610E-02
RMM:  38    -0.125337563594E+04   -0.20228E-03   -0.11680E-05  1655   0.705E-03    0.583E-02
RMM:  39    -0.125337578538E+04   -0.14944E-03   -0.24432E-05  1927   0.827E-03    0.223E-02
RMM:  40    -0.125337591734E+04   -0.13195E-03   -0.27242E-05  1907   0.824E-03    0.210E-02
RMM:  41    -0.125337599596E+04   -0.78623E-04   -0.19304E-05  1869   0.628E-03    0.225E-02
RMM:  42    -0.125337603663E+04   -0.40670E-04   -0.14601E-05  1723   0.544E-03    0.222E-02
RMM:  43    -0.125337605479E+04   -0.18167E-04   -0.63307E-06  1458   0.426E-03    0.253E-02
RMM:  44    -0.125337599331E+04    0.61480E-04   -0.73465E-06  1521   0.639E-03    0.348E-02
RMM:  45    -0.125337601922E+04   -0.25903E-04   -0.11080E-06  1182   0.262E-03    0.309E-02
RMM:  46    -0.125337606376E+04   -0.44541E-04   -0.67787E-06  1468   0.492E-03    0.222E-02
RMM:  47    -0.125337607394E+04   -0.10185E-04   -0.16283E-05  1737   0.671E-03    0.194E-02
RMM:  48    -0.125337609554E+04   -0.21594E-04   -0.58123E-06  1339   0.447E-03    0.237E-02
RMM:  49    -0.125337610680E+04   -0.11267E-04   -0.86012E-06  1529   0.431E-03    0.210E-02
RMM:  50    -0.125337611651E+04   -0.97060E-05   -0.84382E-06  1504   0.455E-03    0.208E-02
RMM:  51    -0.125337612731E+04   -0.10797E-04   -0.50628E-06  1338   0.358E-03    0.235E-02
RMM:  52    -0.125337609194E+04    0.35366E-04   -0.39900E-06  1375   0.486E-03    0.305E-02
RMM:  53    -0.125337612783E+04   -0.35889E-04   -0.36303E-06  1276   0.395E-03    0.242E-02
RMM:  54    -0.125337614610E+04   -0.18266E-04   -0.12926E-05  1623   0.619E-03    0.200E-02
RMM:  55    -0.125337616244E+04   -0.16345E-04   -0.10724E-05  1489   0.526E-03    0.208E-02
RMM:  56    -0.125337617797E+04   -0.15534E-04   -0.70325E-06  1394   0.401E-03    0.234E-02
RMM:  57    -0.125337616104E+04    0.16935E-04   -0.27963E-06  1273   0.378E-03    0.286E-02
RMM:  58    -0.125337615270E+04    0.83359E-05   -0.72684E-07  1151   0.204E-03    0.296E-02
RMM:  59    -0.125337615242E+04    0.28122E-06   -0.23043E-07  1061   0.125E-03
   3 F= -.12618300E+04 E0= -.12618195E+04  d E =-.114396E+01  mag=    42.4202
       N       E                     dE             d eps       ncg     rms          rms(c)
DAV:   1    -0.125339492432E+04   -0.18772E-01   -0.40012E+00  2216   0.458E+00    0.710E-01
RMM:   2    -0.125340532871E+04   -0.10404E-01   -0.11310E-01  2466   0.678E-01    0.114E+00
RMM:   3    -0.125341590520E+04   -0.10576E-01   -0.17453E-02  2491   0.293E-01    0.409E+00
RMM:   4    -0.125339599047E+04    0.19915E-01   -0.13048E-02  2400   0.262E-01    0.902E-01
RMM:   5    -0.125340322062E+04   -0.72301E-02   -0.41404E-03  2377   0.145E-01    0.470E-01
RMM:   6    -0.125340435157E+04   -0.11310E-02   -0.10439E-03  2399   0.716E-02    0.447E-01
RMM:   7    -0.125340461950E+04   -0.26793E-03   -0.12936E-03  2494   0.687E-02    0.543E-01
RMM:   8    -0.125340396813E+04    0.65137E-03   -0.11242E-03  2430   0.700E-02    0.295E-01
RMM:   9    -0.125340432618E+04   -0.35805E-03   -0.73097E-04  2321   0.557E-02    0.412E-01
RMM:  10    -0.125340424001E+04    0.86169E-04   -0.34739E-04  2266   0.421E-02    0.540E-01
RMM:  11    -0.125340403401E+04    0.20600E-03   -0.27148E-04  2245   0.358E-02    0.444E-01
RMM:  12    -0.125340400807E+04    0.25940E-04   -0.21089E-04  2285   0.293E-02    0.155E-01
RMM:  13    -0.125340438745E+04   -0.37938E-03   -0.19274E-04  2146   0.305E-02    0.246E-01
RMM:  14    -0.125340456154E+04   -0.17409E-03   -0.12754E-04  2058   0.259E-02    0.415E-01
RMM:  15    -0.125340445407E+04    0.10747E-03   -0.72382E-05  1961   0.182E-02    0.419E-01
RMM:  16    -0.125340441484E+04    0.39232E-04   -0.22445E-05  1794   0.894E-03    0.414E-01
RMM:  17    -0.125340414247E+04    0.27237E-03   -0.77260E-05  1944   0.199E-02    0.439E-01
RMM:  18    -0.125340379865E+04    0.34382E-03   -0.12819E-04  2009   0.213E-02    0.315E-01
RMM:  19    -0.125340395419E+04   -0.15554E-03   -0.74086E-05  1972   0.160E-02    0.253E-01
RMM:  20    -0.125340387742E+04    0.76773E-04   -0.77896E-05  1957   0.141E-02    0.221E-01
RMM:  21    -0.125340397086E+04   -0.93438E-04   -0.35658E-05  1844   0.102E-02    0.212E-01
RMM:  22    -0.125340403893E+04   -0.68069E-04   -0.17585E-05  1719   0.805E-03    0.200E-01
RMM:  23    -0.125340409646E+04   -0.57526E-04   -0.13463E-05  1730   0.903E-03    0.172E-01
RMM:  24    -0.125340415091E+04   -0.54453E-04   -0.80167E-05  1940   0.183E-02    0.952E-02
RMM:  25    -0.125340424569E+04   -0.94782E-04   -0.43695E-05  1923   0.162E-02    0.982E-02
RMM:  26    -0.125340403089E+04    0.21480E-03   -0.60452E-05  1932   0.178E-02    0.856E-02
RMM:  27    -0.125340369219E+04    0.33870E-03   -0.11529E-04  1943   0.195E-02    0.997E-02
RMM:  28    -0.125340400259E+04   -0.31040E-03   -0.35131E-05  1786   0.128E-02    0.847E-02
RMM:  29    -0.125340416668E+04   -0.16409E-03   -0.66406E-05  1943   0.176E-02    0.546E-02
RMM:  30    -0.125340423024E+04   -0.63554E-04   -0.25381E-05  1753   0.956E-03    0.454E-02
RMM:  31    -0.125340426857E+04   -0.38334E-04   -0.10484E-04  1917   0.175E-02    0.360E-02
RMM:  32    -0.125340440102E+04   -0.13245E-03   -0.67230E-05  1861   0.134E-02    0.406E-02
RMM:  33    -0.125340449174E+04   -0.90729E-04   -0.34178E-05  1803   0.938E-03    0.469E-02
RMM:  34    -0.125340453940E+04   -0.47656E-04   -0.23506E-05  1712   0.678E-03    0.479E-02
RMM:  35    -0.125340451451E+04    0.24892E-04   -0.72875E-06  1498   0.595E-03    0.550E-02
RMM:  36    -0.125340447466E+04    0.39843E-04   -0.25628E-06  1305   0.365E-03    0.585E-02
RMM:  37    -0.125340448072E+04   -0.60577E-05   -0.63513E-07  1170   0.206E-03    0.566E-02
RMM:  38    -0.125340450728E+04   -0.26557E-04   -0.49169E-07  1175   0.134E-03    0.549E-02
RMM:  39    -0.125340450177E+04    0.55059E-05   -0.56720E-07  1221   0.161E-03    0.568E-02
RMM:  40    -0.125340451591E+04   -0.14139E-04   -0.37825E-07  1119   0.106E-03    0.563E-02
RMM:  41    -0.125340452911E+04   -0.13196E-04   -0.33026E-07  1087   0.895E-04    0.559E-02
RMM:  42    -0.125340452872E+04    0.38851E-06   -0.25123E-07  1028   0.759E-04
   4 F= -.12618556E+04 E0= -.12618455E+04  d E =-.116961E+01  mag=    42.3998
       N       E                     dE             d eps       ncg     rms          rms(c)
DAV:   1    -0.125042224134E+04    0.29823E+01   -0.65935E+02  2120   0.574E+01    0.108E+01
RMM:   2    -0.125256161834E+04   -0.21394E+01   -0.22263E+01  2489   0.985E+00    0.153E+01
RMM:   3    -0.125424496868E+04   -0.16834E+01   -0.41611E+00  2549   0.427E+00    0.288E+01
RMM:   4    -0.125282272519E+04    0.14222E+01   -0.15622E+00  2542   0.268E+00    0.172E+01
RMM:   5    -0.125236513756E+04    0.45759E+00   -0.38318E-01  2484   0.122E+00    0.112E+01
RMM:   6    -0.125236531545E+04   -0.17790E-03   -0.25636E-01  2383   0.105E+00    0.119E+01
RMM:   7    -0.125241117133E+04   -0.45856E-01   -0.29819E-01  2443   0.111E+00    0.132E+01
RMM:   8    -0.125232637483E+04    0.84797E-01   -0.20424E-01  2440   0.873E-01    0.572E+00
RMM:   9    -0.125237300719E+04   -0.46632E-01   -0.15413E-01  2276   0.845E-01    0.607E+00
RMM:  10    -0.125233840087E+04    0.34606E-01   -0.12964E-01  2382   0.723E-01    0.506E+00
RMM:  11    -0.125226802569E+04    0.70375E-01   -0.10240E-01  2339   0.683E-01    0.312E+00
RMM:  12    -0.125235874618E+04   -0.90720E-01   -0.73921E-02  2492   0.535E-01    0.994E+00
RMM:  13    -0.125230571922E+04    0.53027E-01   -0.82022E-02  2299   0.643E-01    0.813E+00
RMM:  14    -0.125227230253E+04    0.33417E-01   -0.33061E-02  2358   0.378E-01    0.335E+00
RMM:  15    -0.125232035581E+04   -0.48053E-01   -0.17363E-02  2236   0.289E-01    0.362E+00
RMM:  16    -0.125231547901E+04    0.48768E-02   -0.45929E-03  2340   0.146E-01    0.385E+00
RMM:  17    -0.125231172028E+04    0.37587E-02   -0.11509E-03  2361   0.630E-02    0.378E+00
RMM:  18    -0.125230557711E+04    0.61432E-02   -0.10371E-02  2187   0.194E-01    0.296E+00
RMM:  19    -0.125234691157E+04   -0.41334E-01   -0.30018E-02  2254   0.355E-01    0.818E+00
RMM:  20    -0.125232338031E+04    0.23531E-01   -0.28286E-02  2199   0.411E-01    0.924E+00
RMM:  21    -0.125228813927E+04    0.35241E-01   -0.65140E-03  2241   0.179E-01    0.856E+00
RMM:  22    -0.125228268213E+04    0.54571E-02   -0.10233E-03  2523   0.512E-02    0.824E+00
RMM:  23    -0.125228369381E+04   -0.10117E-02   -0.16042E-04  2141   0.223E-02    0.810E+00
RMM:  24    -0.125228152301E+04    0.21708E-02   -0.12611E-03  2183   0.729E-02    0.774E+00
RMM:  25    -0.125229487655E+04   -0.13354E-01   -0.16775E-03  2212   0.811E-02    0.868E+00
RMM:  26    -0.125225732457E+04    0.37552E-01   -0.68076E-03  2132   0.157E-01    0.531E+00
RMM:  27    -0.125228400321E+04   -0.26679E-01   -0.18205E-02  2194   0.285E-01    0.224E+00
RMM:  28    -0.125230866813E+04   -0.24665E-01   -0.16369E-02  2231   0.309E-01    0.208E+00
RMM:  29    -0.125230541291E+04    0.32552E-02   -0.55757E-03  2269   0.162E-01    0.173E+00
RMM:  30    -0.125230426100E+04    0.11519E-02   -0.16613E-03  2465   0.673E-02    0.144E+00
RMM:  31    -0.125230569749E+04   -0.14365E-02   -0.84085E-04  2283   0.547E-02    0.139E+00
RMM:  32    -0.125230959046E+04   -0.38930E-02   -0.17954E-03  2191   0.819E-02    0.171E+00
RMM:  33    -0.125231238244E+04   -0.27920E-02   -0.32686E-03  2215   0.109E-01    0.194E+00
RMM:  34    -0.125231103834E+04    0.13441E-02   -0.28987E-03  2317   0.950E-02    0.104E+00
RMM:  35    -0.125231319859E+04   -0.21602E-02   -0.84034E-04  2287   0.528E-02    0.824E-01
RMM:  36    -0.125231382955E+04   -0.63096E-03   -0.30112E-04  2379   0.305E-02    0.748E-01
RMM:  37    -0.125231437418E+04   -0.54463E-03   -0.30512E-04  2186   0.312E-02    0.696E-01
RMM:  38    -0.125231502636E+04   -0.65219E-03   -0.10666E-03  2241   0.609E-02    0.634E-01
RMM:  39    -0.125231528053E+04   -0.25417E-03   -0.60340E-04  2351   0.461E-02    0.564E-01
RMM:  40    -0.125231558564E+04   -0.30511E-03   -0.42115E-04  2430   0.323E-02    0.457E-01
RMM:  41    -0.125231600756E+04   -0.42192E-03   -0.11953E-04  2233   0.183E-02    0.411E-01
RMM:  42    -0.125231627874E+04   -0.27118E-03   -0.62352E-05  2179   0.115E-02    0.348E-01
RMM:  43    -0.125231678330E+04   -0.50456E-03   -0.17859E-04  2164   0.236E-02    0.280E-01
RMM:  44    -0.125231721289E+04   -0.42958E-03   -0.12658E-04  2305   0.178E-02    0.255E-01
RMM:  45    -0.125231760818E+04   -0.39529E-03   -0.93396E-05  2294   0.139E-02    0.160E-01
RMM:  46    -0.125231806260E+04   -0.45443E-03   -0.84773E-05  2110   0.149E-02    0.114E-01
RMM:  47    -0.125231842845E+04   -0.36584E-03   -0.95756E-05  2149   0.150E-02    0.433E-02
RMM:  48    -0.125231867567E+04   -0.24722E-03   -0.58905E-05  2108   0.122E-02    0.304E-02
RMM:  49    -0.125231881904E+04   -0.14338E-03   -0.38296E-05  2080   0.866E-03    0.276E-02
RMM:  50    -0.125231890821E+04   -0.89166E-04   -0.27512E-05  1941   0.779E-03    0.244E-02
RMM:  51    -0.125231896632E+04   -0.58110E-04   -0.25018E-05  1954   0.703E-03    0.186E-02
RMM:  52    -0.125231899108E+04   -0.24761E-04   -0.17906E-05  1812   0.620E-03    0.698E-03
RMM:  53    -0.125231900990E+04   -0.18819E-04   -0.67296E-06  1515   0.421E-03    0.602E-03
RMM:  54    -0.125231901538E+04   -0.54804E-05   -0.27550E-06  1329   0.279E-03    0.612E-03
RMM:  55    -0.125231900715E+04    0.82260E-05   -0.28524E-06  1360   0.278E-03    0.342E-03
RMM:  56    -0.125231901036E+04   -0.32092E-05   -0.15547E-06  1239   0.217E-03    0.377E-03
RMM:  57    -0.125231901273E+04   -0.23650E-05   -0.75846E-07  1152   0.155E-03    0.227E-03
RMM:  58    -0.125231901235E+04    0.38012E-06   -0.68868E-07  1121   0.140E-03
   5 F= -.12608035E+04 E0= -.12607962E+04  d E =0.105211E+01  mag=    42.2441
       N       E                     dE             d eps       ncg     rms          rms(c)
DAV:   1    -0.125310004292E+04   -0.78103E+00   -0.26149E+02  2104   0.359E+01    0.735E+00
RMM:   2    -0.125430509286E+04   -0.12050E+01   -0.81299E+00  2405   0.633E+00    0.160E+01
RMM:   3    -0.125451235926E+04   -0.20727E+00   -0.16598E+00  2574   0.270E+00    0.209E+01
RMM:   4    -0.125374182255E+04    0.77054E+00   -0.54443E-01  2559   0.161E+00    0.103E+01
RMM:   5    -0.125377677838E+04   -0.34956E-01   -0.24294E-01  2458   0.100E+00    0.753E+00
RMM:   6    -0.125370836672E+04    0.68412E-01   -0.13330E-01  2387   0.732E-01    0.499E+00
RMM:   7    -0.125375246316E+04   -0.44096E-01   -0.12202E-01  2417   0.647E-01    0.633E+00
RMM:   8    -0.125372197870E+04    0.30484E-01   -0.12914E-01  2347   0.698E-01    0.380E+00
RMM:   9    -0.125373739589E+04   -0.15417E-01   -0.70101E-02  2369   0.519E-01    0.672E+00
RMM:  10    -0.125371346266E+04    0.23933E-01   -0.61736E-02  2352   0.473E-01    0.392E+00
RMM:  11    -0.125374959277E+04   -0.36130E-01   -0.66412E-02  2296   0.542E-01    0.369E+00
RMM:  12    -0.125376586310E+04   -0.16270E-01   -0.31043E-02  2281   0.393E-01    0.346E+00
RMM:  13    -0.125376265756E+04    0.32055E-02   -0.74132E-03  2314   0.195E-01    0.338E+00
RMM:  14    -0.125375758445E+04    0.50731E-02   -0.19686E-03  2534   0.734E-02    0.318E+00
RMM:  15    -0.125376584081E+04   -0.82564E-02   -0.92982E-03  2228   0.190E-01    0.281E+00
RMM:  16    -0.125377615978E+04   -0.10319E-01   -0.18202E-02  2264   0.274E-01    0.342E+00
RMM:  17    -0.125376873189E+04    0.74279E-02   -0.19041E-02  2243   0.296E-01    0.383E+00
RMM:  18    -0.125374845283E+04    0.20279E-01   -0.18946E-02  2258   0.261E-01    0.147E+00
RMM:  19    -0.125377128768E+04   -0.22835E-01   -0.24215E-02  2211   0.309E-01    0.235E+00
RMM:  20    -0.125376867892E+04    0.26088E-02   -0.12699E-02  2354   0.223E-01    0.172E+00
RMM:  21    -0.125376866669E+04    0.12230E-04   -0.31284E-03  2304   0.106E-01    0.120E+00
RMM:  22    -0.125377094401E+04   -0.22773E-02   -0.31783E-03  2264   0.114E-01    0.150E+00
RMM:  23    -0.125376990577E+04    0.10382E-02   -0.19845E-03  2326   0.917E-02    0.143E+00
RMM:  24    -0.125376984691E+04    0.58862E-04   -0.38910E-04  2257   0.377E-02    0.148E+00
RMM:  25    -0.125376935784E+04    0.48908E-03   -0.16990E-04  2123   0.284E-02    0.146E+00
RMM:  26    -0.125376981156E+04   -0.45373E-03   -0.31975E-04  2197   0.341E-02    0.155E+00
RMM:  27    -0.125376947180E+04    0.33976E-03   -0.21822E-03  2131   0.944E-02    0.156E+00
RMM:  28    -0.125377033916E+04   -0.86736E-03   -0.21826E-03  2189   0.914E-02    0.117E+00
RMM:  29    -0.125377156407E+04   -0.12249E-02   -0.16372E-03  2339   0.797E-02    0.838E-01
RMM:  30    -0.125377224433E+04   -0.68025E-03   -0.11961E-03  2287   0.668E-02    0.346E-01
RMM:  31    -0.125377357886E+04   -0.13345E-02   -0.61076E-04  2202   0.498E-02    0.665E-01
RMM:  32    -0.125377322006E+04    0.35880E-03   -0.37199E-04  2138   0.408E-02    0.614E-01
RMM:  33    -0.125377316026E+04    0.59803E-04   -0.27439E-04  2253   0.334E-02    0.468E-01
RMM:  34    -0.125377345734E+04   -0.29709E-03   -0.32112E-04  2066   0.387E-02    0.144E-01
RMM:  35    -0.125377383663E+04   -0.37928E-03   -0.24530E-04  2039   0.338E-02    0.133E-01
RMM:  36    -0.125377393599E+04   -0.99360E-04   -0.13636E-04  2232   0.240E-02    0.136E-01
RMM:  37    -0.125377400842E+04   -0.72437E-04   -0.58785E-05  1991   0.169E-02    0.579E-02
RMM:  38    -0.125377413339E+04   -0.12497E-03   -0.27768E-05  1947   0.104E-02    0.742E-02
RMM:  39    -0.125377420765E+04   -0.74257E-04   -0.21453E-05  1880   0.847E-03    0.496E-02
RMM:  40    -0.125377430307E+04   -0.95417E-04   -0.19185E-05  1847   0.730E-03    0.369E-02
RMM:  41    -0.125377435505E+04   -0.51990E-04   -0.90989E-06  1656   0.542E-03    0.624E-02
RMM:  42    -0.125377439690E+04   -0.41840E-04   -0.96473E-06  1708   0.487E-03    0.642E-02
RMM:  43    -0.125377444571E+04   -0.48817E-04   -0.12355E-05  1782   0.540E-03    0.319E-02
RMM:  44    -0.125377448876E+04   -0.43043E-04   -0.97632E-06  1668   0.470E-03    0.610E-03
RMM:  45    -0.125377451815E+04   -0.29394E-04   -0.53070E-06  1455   0.368E-03    0.863E-03
RMM:  46    -0.125377453330E+04   -0.15154E-04   -0.27033E-06  1315   0.261E-03    0.915E-03
RMM:  47    -0.125377453864E+04   -0.53354E-05   -0.11143E-06  1201   0.198E-03    0.108E-02
RMM:  48    -0.125377453475E+04    0.38934E-05   -0.51905E-07  1138   0.157E-03    0.117E-02
RMM:  49    -0.125377454763E+04   -0.12881E-04   -0.11915E-06  1176   0.187E-03    0.129E-02
RMM:  50    -0.125377455572E+04   -0.80928E-05   -0.24931E-06  1308   0.241E-03    0.743E-03
RMM:  51    -0.125377456323E+04   -0.75103E-05   -0.19425E-06  1254   0.218E-03    0.598E-03
RMM:  52    -0.125377456815E+04   -0.49176E-05   -0.10942E-06  1162   0.173E-03    0.762E-03
RMM:  53    -0.125377457052E+04   -0.23702E-05   -0.82054E-07  1140   0.146E-03    0.784E-03
RMM:  54    -0.125377457256E+04   -0.20415E-05   -0.88351E-07  1134   0.151E-03    0.727E-03
RMM:  55    -0.125377457418E+04   -0.16169E-05   -0.80529E-07  1134   0.144E-03    0.634E-03
RMM:  56    -0.125377457340E+04    0.77162E-06   -0.19942E-06  1290   0.222E-03
   6 F= -.12622434E+04 E0= -.12622343E+04  d E =-.387759E+00  mag=    42.3425
       N       E                     dE             d eps       ncg     rms          rms(c)
DAV:   1    -0.125252826273E+04    0.12463E+01   -0.31459E+02  2104   0.382E+01    0.707E+00
RMM:   2    -0.125365440711E+04   -0.11261E+01   -0.10291E+01  2640   0.673E+00    0.892E+00
RMM:   3    -0.125462550460E+04   -0.97110E+00   -0.17288E+00  2570   0.275E+00    0.207E+01
RMM:   4    -0.125353755778E+04    0.10879E+01   -0.66456E-01  2537   0.177E+00    0.103E+01
RMM:   5    -0.125386960097E+04   -0.33204E+00   -0.40288E-01  2420   0.123E+00    0.149E+01
RMM:   6    -0.125348486810E+04    0.38473E+00   -0.18144E-01  2396   0.935E-01    0.349E+00
RMM:   7    -0.125361195061E+04   -0.12708E+00   -0.11311E-01  2469   0.715E-01    0.617E+00
RMM:   8    -0.125356047391E+04    0.51477E-01   -0.65915E-02  2430   0.526E-01    0.399E+00
RMM:   9    -0.125356158640E+04   -0.11125E-02   -0.32131E-02  2397   0.332E-01    0.269E+00
RMM:  10    -0.125358537467E+04   -0.23788E-01   -0.52947E-02  2394   0.442E-01    0.350E+00
RMM:  11    -0.125359007052E+04   -0.46959E-02   -0.43611E-02  2429   0.427E-01    0.521E+00
RMM:  12    -0.125358478337E+04    0.52872E-02   -0.26938E-02  2407   0.367E-01    0.574E+00
RMM:  13    -0.125356223880E+04    0.22545E-01   -0.12464E-02  2443   0.228E-01    0.523E+00
RMM:  14    -0.125353832859E+04    0.23910E-01   -0.87658E-03  2335   0.181E-01    0.126E+00
RMM:  15    -0.125356972396E+04   -0.31395E-01   -0.16731E-02  2217   0.299E-01    0.198E+00
RMM:  16    -0.125357116458E+04   -0.14406E-02   -0.81662E-03  2240   0.220E-01    0.254E+00
RMM:  17    -0.125356722946E+04    0.39351E-02   -0.24813E-03  2207   0.114E-01    0.238E+00
RMM:  18    -0.125356516900E+04    0.20605E-02   -0.12127E-03  2367   0.686E-02    0.189E+00
RMM:  19    -0.125356851135E+04   -0.33423E-02   -0.34409E-03  2263   0.114E-01    0.747E-01
RMM:  20    -0.125357320266E+04   -0.46913E-02   -0.40258E-03  2257   0.146E-01    0.452E-01
RMM:  21    -0.125357482086E+04   -0.16182E-02   -0.12618E-03  2309   0.821E-02    0.570E-01
RMM:  22    -0.125357505468E+04   -0.23383E-03   -0.80901E-04  2262   0.621E-02    0.535E-01
RMM:  23    -0.125357518089E+04   -0.12621E-03   -0.30051E-04  2239   0.372E-02    0.403E-01
RMM:  24    -0.125357544321E+04   -0.26232E-03   -0.13309E-04  2160   0.214E-02    0.460E-01
RMM:  25    -0.125357553218E+04   -0.88969E-04   -0.93063E-05  2108   0.184E-02    0.475E-01
RMM:  26    -0.125357625371E+04   -0.72153E-03   -0.14740E-04  2020   0.231E-02    0.467E-01
RMM:  27    -0.125357759728E+04   -0.13436E-02   -0.25998E-04  2183   0.283E-02    0.122E-01
RMM:  28    -0.125357829385E+04   -0.69657E-03   -0.17561E-04  2191   0.289E-02    0.216E-01
RMM:  29    -0.125357840822E+04   -0.11437E-03   -0.86881E-05  2087   0.219E-02    0.109E-01
RMM:  30    -0.125357878075E+04   -0.37252E-03   -0.31026E-05  2014   0.971E-03    0.497E-02
RMM:  31    -0.125357903711E+04   -0.25636E-03   -0.26302E-05  1849   0.103E-02    0.825E-02
RMM:  32    -0.125357951381E+04   -0.47670E-03   -0.22834E-05  1883   0.819E-03    0.467E-02
RMM:  33    -0.125358018844E+04   -0.67463E-03   -0.30750E-05  2066   0.603E-03    0.189E-02
RMM:  34    -0.125358064773E+04   -0.45929E-03   -0.22513E-05  1974   0.631E-03    0.419E-02
RMM:  35    -0.125358077499E+04   -0.12726E-03   -0.75637E-06  1630   0.474E-03    0.414E-02
RMM:  36    -0.125358104674E+04   -0.27175E-03   -0.11430E-05  1787   0.393E-03    0.142E-02
RMM:  37    -0.125358135831E+04   -0.31157E-03   -0.15270E-05  1932   0.395E-03    0.138E-02
RMM:  38    -0.125358160056E+04   -0.24225E-03   -0.14790E-05  1842   0.349E-03    0.194E-02
RMM:  39    -0.125358172890E+04   -0.12833E-03   -0.83427E-06  1747   0.313E-03    0.100E-02
RMM:  40    -0.125358183085E+04   -0.10195E-03   -0.79237E-06  1677   0.278E-03    0.416E-03
RMM:  41    -0.125358190159E+04   -0.70744E-04   -0.63798E-06  1629   0.277E-03    0.346E-03
RMM:  42    -0.125358192543E+04   -0.23832E-04   -0.27323E-06  1415   0.194E-03    0.446E-03
RMM:  43    -0.125358194164E+04   -0.16211E-04   -0.17304E-06  1257   0.165E-03    0.270E-03
RMM:  44    -0.125358195051E+04   -0.88722E-05   -0.10004E-06  1197   0.133E-03    0.135E-03
RMM:  45    -0.125358195527E+04   -0.47590E-05   -0.64309E-07  1104   0.107E-03    0.111E-03
RMM:  46    -0.125358196016E+04   -0.48970E-05   -0.53319E-07  1087   0.935E-04    0.871E-04
RMM:  47    -0.125358196304E+04   -0.28766E-05   -0.37886E-07  1046   0.844E-04    0.652E-04
RMM:  48    -0.125358196501E+04   -0.19685E-05   -0.27262E-07  1007   0.691E-04    0.439E-04
RMM:  49    -0.125358196660E+04   -0.15883E-05   -0.20275E-07   978   0.622E-04    0.267E-04
RMM:  50    -0.125358196750E+04   -0.90163E-06   -0.14136E-07   903   0.522E-04
   7 F= -.12620784E+04 E0= -.12620662E+04  d E =0.165023E+00  mag=    42.5542
       N       E                     dE             d eps       ncg     rms          rms(c)
DAV:   1    -0.125368475859E+04   -0.10279E+00   -0.10190E+02  2104   0.217E+01    0.368E+00
RMM:   2    -0.125401949191E+04   -0.33473E+00   -0.31248E+00  2622   0.380E+00    0.365E+00
RMM:   3    -0.125432717311E+04   -0.30768E+00   -0.50425E-01  2543   0.154E+00    0.121E+01
RMM:   4    -0.125402680479E+04    0.30037E+00   -0.23382E-01  2534   0.103E+00    0.580E+00
RMM:   5    -0.125401089252E+04    0.15912E-01   -0.76564E-02  2504   0.561E-01    0.254E+00
RMM:   6    -0.125402021874E+04   -0.93262E-02   -0.35147E-02  2381   0.397E-01    0.204E+00
RMM:   7    -0.125401791598E+04    0.23028E-02   -0.27018E-02  2567   0.307E-01    0.185E+00
RMM:   8    -0.125401423617E+04    0.36798E-02   -0.20825E-02  2455   0.293E-01    0.181E+00
RMM:   9    -0.125401736890E+04   -0.31327E-02   -0.15013E-02  2292   0.264E-01    0.229E+00
RMM:  10    -0.125401069685E+04    0.66720E-02   -0.46030E-03  2354   0.159E-01    0.181E+00
RMM:  11    -0.125400922469E+04    0.14722E-02   -0.20684E-03  2424   0.912E-02    0.104E+00
RMM:  12    -0.125401284707E+04   -0.36224E-02   -0.28848E-03  2344   0.109E-01    0.108E+00
RMM:  13    -0.125401436001E+04   -0.15129E-02   -0.22804E-03  2245   0.116E-01    0.116E+00
RMM:  14    -0.125401263022E+04    0.17298E-02   -0.11800E-03  2317   0.752E-02    0.804E-01
RMM:  15    -0.125401228506E+04    0.34516E-03   -0.72373E-04  2315   0.570E-02    0.228E-01
RMM:  16    -0.125401320877E+04   -0.92371E-03   -0.34645E-04  2245   0.428E-02    0.455E-01
RMM:  17    -0.125401327451E+04   -0.65738E-04   -0.24170E-04  2243   0.381E-02    0.467E-01
RMM:  18    -0.125401324634E+04    0.28166E-04   -0.89390E-05  2234   0.201E-02    0.198E-01
RMM:  19    -0.125401378166E+04   -0.53532E-03   -0.74573E-05  2143   0.182E-02    0.102E-01
RMM:  20    -0.125401404260E+04   -0.26094E-03   -0.77750E-05  2128   0.193E-02    0.112E-01
RMM:  21    -0.125401426007E+04   -0.21747E-03   -0.37723E-05  2067   0.132E-02    0.391E-02
RMM:  22    -0.125401448239E+04   -0.22232E-03   -0.16511E-05  1915   0.753E-03    0.549E-02
RMM:  23    -0.125401457094E+04   -0.88550E-04   -0.13114E-05  1687   0.728E-03    0.548E-02
RMM:  24    -0.125401463227E+04   -0.61328E-04   -0.75028E-06  1559   0.582E-03    0.356E-02
RMM:  25    -0.125401477940E+04   -0.14714E-03   -0.84316E-06  1703   0.544E-03    0.798E-02
RMM:  26    -0.125401493087E+04   -0.15146E-03   -0.11691E-05  1739   0.698E-03    0.711E-02
RMM:  27    -0.125401504552E+04   -0.11466E-03   -0.80797E-06  1638   0.568E-03    0.279E-02
RMM:  28    -0.125401523408E+04   -0.18855E-03   -0.63069E-06  1690   0.412E-03    0.268E-02
RMM:  29    -0.125401536287E+04   -0.12879E-03   -0.56393E-06  1643   0.422E-03    0.258E-02
RMM:  30    -0.125401544330E+04   -0.80425E-04   -0.37542E-06  1530   0.359E-03    0.224E-02
RMM:  31    -0.125401559436E+04   -0.15107E-03   -0.61333E-06  1679   0.360E-03    0.116E-02
RMM:  32    -0.125401567640E+04   -0.82036E-04   -0.40263E-06  1542   0.343E-03    0.204E-02
RMM:  33    -0.125401573063E+04   -0.54237E-04   -0.28757E-06  1451   0.310E-03    0.113E-02
RMM:  34    -0.125401579694E+04   -0.66300E-04   -0.24214E-06  1369   0.213E-03    0.499E-03
RMM:  35    -0.125401584454E+04   -0.47606E-04   -0.18166E-06  1283   0.196E-03    0.101E-02
RMM:  36    -0.125401588066E+04   -0.36120E-04   -0.17104E-06  1270   0.172E-03    0.968E-03
RMM:  37    -0.125401590509E+04   -0.24425E-04   -0.14010E-06  1222   0.163E-03    0.575E-03
RMM:  38    -0.125401592611E+04   -0.21020E-04   -0.14249E-06  1237   0.152E-03    0.294E-03
RMM:  39    -0.125401594371E+04   -0.17602E-04   -0.14601E-06  1236   0.152E-03    0.122E-03
RMM:  40    -0.125401595228E+04   -0.85675E-05   -0.95570E-07  1167   0.134E-03    0.913E-04
RMM:  41    -0.125401595633E+04   -0.40540E-05   -0.63710E-07  1119   0.109E-03    0.730E-04
RMM:  42    -0.125401595859E+04   -0.22589E-05   -0.41260E-07  1032   0.894E-04    0.440E-04
RMM:  43    -0.125401596025E+04   -0.16587E-05   -0.28357E-07   977   0.725E-04    0.478E-04
RMM:  44    -0.125401596123E+04   -0.98734E-06   -0.19158E-07   943   0.624E-04
   8 F= -.12624980E+04 E0= -.12624875E+04  d E =-.254613E+00  mag=    42.4287
       N       E                     dE             d eps       ncg     rms          rms(c)
DAV:   1    -0.125396433051E+04    0.51630E-01   -0.50804E+01  2104   0.152E+01    0.255E+00
RMM:   2    -0.125414726921E+04   -0.18294E+00   -0.11808E+00  2442   0.237E+00    0.931E+00
RMM:   3    -0.125410296012E+04    0.44309E-01   -0.22214E-01  2502   0.104E+00    0.404E+00
RMM:   4    -0.125411377012E+04   -0.10810E-01   -0.71299E-02  2559   0.607E-01    0.239E+00
RMM:   5    -0.125411011885E+04    0.36513E-02   -0.19292E-02  2567   0.275E-01    0.242E+00
RMM:   6    -0.125410461835E+04    0.55005E-02   -0.10360E-02  2525   0.202E-01    0.177E+00
RMM:   7    -0.125410390853E+04    0.70982E-03   -0.96127E-03  2447   0.199E-01    0.110E+00
RMM:   8    -0.125411008360E+04   -0.61751E-02   -0.93749E-03  2433   0.198E-01    0.274E+00
RMM:   9    -0.125410653493E+04    0.35487E-02   -0.59296E-03  2361   0.176E-01    0.315E+00
RMM:  10    -0.125409862993E+04    0.79050E-02   -0.23725E-03  2416   0.999E-02    0.240E+00
RMM:  11    -0.125409797368E+04    0.65625E-03   -0.13108E-03  2314   0.662E-02    0.636E-01
RMM:  12    -0.125410447952E+04   -0.65058E-02   -0.19051E-03  2217   0.106E-01    0.515E-01
RMM:  13    -0.125410543077E+04   -0.95125E-03   -0.10953E-03  2258   0.807E-02    0.320E-01
RMM:  14    -0.125410554256E+04   -0.11179E-03   -0.36078E-04  2310   0.395E-02    0.463E-01
RMM:  15    -0.125410568925E+04   -0.14668E-03   -0.25149E-04  2140   0.334E-02    0.900E-01
RMM:  16    -0.125410529266E+04    0.39659E-03   -0.29382E-04  2096   0.389E-02    0.113E+00
RMM:  17    -0.125410430729E+04    0.98537E-03   -0.43205E-04  2219   0.448E-02    0.737E-01
RMM:  18    -0.125410467313E+04   -0.36584E-03   -0.42325E-04  2294   0.451E-02    0.297E-01
RMM:  19    -0.125410537337E+04   -0.70024E-03   -0.21471E-04  2192   0.354E-02    0.133E-01
RMM:  20    -0.125410566525E+04   -0.29188E-03   -0.11608E-04  2095   0.262E-02    0.183E-01
RMM:  21    -0.125410560799E+04    0.57262E-04   -0.34543E-05  1950   0.137E-02    0.157E-01
RMM:  22    -0.125410560723E+04    0.75781E-06   -0.96175E-06  1669   0.613E-03
   9 F= -.12625939E+04 E0= -.12625837E+04  d E =-.958849E-01  mag=    42.4220
       N       E                     dE             d eps       ncg     rms          rms(c)
DAV:   1    -0.125410858046E+04   -0.29725E-02   -0.25391E+00  2184   0.339E+00    0.587E-01
RMM:   2    -0.125411985447E+04   -0.11274E-01   -0.60957E-02  2410   0.550E-01    0.201E+00
RMM:   3    -0.125411615306E+04    0.37014E-02   -0.12672E-02  2461   0.256E-01    0.204E+00
RMM:   4    -0.125411563859E+04    0.51447E-03   -0.75506E-03  2450   0.206E-01    0.879E-01
RMM:   5    -0.125411555294E+04    0.85652E-04   -0.24618E-03  2438   0.118E-01    0.283E-01
RMM:   6    -0.125411601490E+04   -0.46196E-03   -0.77849E-04  2517   0.543E-02    0.308E-01
RMM:   7    -0.125411593694E+04    0.77955E-04   -0.49405E-04  2473   0.456E-02    0.203E-01
RMM:   8    -0.125411620814E+04   -0.27120E-03   -0.42797E-04  2396   0.433E-02    0.282E-01
RMM:   9    -0.125411603395E+04    0.17419E-03   -0.21440E-04  2354   0.327E-02    0.156E-01
RMM:  10    -0.125411606314E+04   -0.29184E-04   -0.60025E-05  2115   0.163E-02    0.114E-01
RMM:  11    -0.125411608564E+04   -0.22498E-04   -0.39056E-05  1894   0.131E-02    0.854E-02
RMM:  12    -0.125411610076E+04   -0.15123E-04   -0.20930E-05  1737   0.103E-02    0.323E-02
RMM:  13    -0.125411612725E+04   -0.26494E-04   -0.81613E-06  1582   0.678E-03    0.500E-02
RMM:  14    -0.125411612575E+04    0.15041E-05   -0.63114E-06  1518   0.593E-03    0.369E-02
RMM:  15    -0.125411612592E+04   -0.16973E-06   -0.26592E-06  1435   0.400E-03
  10 F= -.12626030E+04 E0= -.12625926E+04  d E =-.105024E+00  mag=    42.4227
       N       E                     dE             d eps       ncg     rms          rms(c)
DAV:   1    -0.125406075251E+04    0.55373E-01   -0.36871E+01  2104   0.125E+01    0.227E+00
RMM:   2    -0.125414561992E+04   -0.84867E-01   -0.69444E-01  2417   0.185E+00    0.191E+00
RMM:   3    -0.125423369398E+04   -0.88074E-01   -0.13890E-01  2529   0.794E-01    0.904E+00
RMM:   4    -0.125414691750E+04    0.86776E-01   -0.58993E-02  2558   0.507E-01    0.312E+00
RMM:   5    -0.125415952604E+04   -0.12609E-01   -0.45851E-02  2341   0.468E-01    0.103E+00
RMM:   6    -0.125416220186E+04   -0.26758E-02   -0.12761E-02  2441   0.210E-01    0.128E+00
RMM:   7    -0.125415976307E+04    0.24388E-02   -0.52133E-03  2469   0.139E-01    0.651E-01
RMM:   8    -0.125416152587E+04   -0.17628E-02   -0.52553E-03  2355   0.145E-01    0.823E-01
RMM:   9    -0.125416185439E+04   -0.32852E-03   -0.46281E-03  2365   0.141E-01    0.830E-01
RMM:  10    -0.125416170503E+04    0.14935E-03   -0.21681E-03  2348   0.101E-01    0.706E-01
RMM:  11    -0.125416152309E+04    0.18195E-03   -0.83844E-04  2311   0.601E-02    0.568E-01
RMM:  12    -0.125416148081E+04    0.42273E-04   -0.21995E-04  2197   0.294E-02    0.414E-01
RMM:  13    -0.125416157365E+04   -0.92839E-04   -0.80028E-05  2011   0.161E-02    0.316E-01
RMM:  14    -0.125416182840E+04   -0.25475E-03   -0.14986E-04  2112   0.243E-02    0.350E-01
RMM:  15    -0.125416233507E+04   -0.50667E-03   -0.34868E-04  2144   0.378E-02    0.581E-01
RMM:  16    -0.125416273978E+04   -0.40470E-03   -0.36071E-04  2079   0.384E-02    0.884E-01
RMM:  17    -0.125416215761E+04    0.58216E-03   -0.21923E-04  2137   0.322E-02    0.784E-01
RMM:  18    -0.125416191546E+04    0.24215E-03   -0.16922E-04  2208   0.261E-02    0.484E-01
RMM:  19    -0.125416215696E+04   -0.24149E-03   -0.14217E-04  2068   0.272E-02    0.827E-02
RMM:  20    -0.125416275449E+04   -0.59753E-03   -0.13849E-04  2022   0.283E-02    0.179E-01
RMM:  21    -0.125416281793E+04   -0.63445E-04   -0.56811E-05  1987   0.183E-02    0.198E-01
RMM:  22    -0.125416295474E+04   -0.13681E-03   -0.23852E-05  1896   0.950E-03    0.993E-02
RMM:  23    -0.125416323480E+04   -0.28006E-03   -0.22712E-05  1892   0.889E-03    0.503E-02
RMM:  24    -0.125416335725E+04   -0.12245E-03   -0.16453E-05  1761   0.912E-03    0.724E-02
RMM:  25    -0.125416340949E+04   -0.52233E-04   -0.66264E-06  1590   0.577E-03    0.533E-02
RMM:  26    -0.125416344316E+04   -0.33675E-04   -0.27517E-06  1438   0.357E-03    0.292E-02
RMM:  27    -0.125416347857E+04   -0.35405E-04   -0.17895E-06  1380   0.303E-03    0.138E-02
RMM:  28    -0.125416357342E+04   -0.94854E-04   -0.20638E-06  1341   0.230E-03    0.211E-02
RMM:  29    -0.125416368128E+04   -0.10786E-03   -0.31142E-06  1482   0.307E-03    0.298E-02
RMM:  30    -0.125416378813E+04   -0.10685E-03   -0.35567E-06  1524   0.309E-03    0.162E-02
RMM:  31    -0.125416395622E+04   -0.16809E-03   -0.62005E-06  1624   0.283E-03    0.127E-02
RMM:  32    -0.125416404728E+04   -0.91054E-04   -0.32922E-06  1415   0.251E-03    0.158E-02
RMM:  33    -0.125416410969E+04   -0.62417E-04   -0.26200E-06  1337   0.202E-03    0.908E-03
RMM:  34    -0.125416413881E+04   -0.29112E-04   -0.12572E-06  1181   0.188E-03    0.577E-03
RMM:  35    -0.125416418228E+04   -0.43471E-04   -0.16623E-06  1235   0.158E-03    0.240E-03
RMM:  36    -0.125416423476E+04   -0.52485E-04   -0.23779E-06  1327   0.170E-03    0.358E-03
RMM:  37    -0.125416426927E+04   -0.34512E-04   -0.21024E-06  1278   0.158E-03    0.619E-03
RMM:  38    -0.125416428999E+04   -0.20716E-04   -0.15852E-06  1228   0.152E-03    0.288E-03
RMM:  39    -0.125416430028E+04   -0.10285E-04   -0.10822E-06  1143   0.128E-03    0.153E-03
RMM:  40    -0.125416430885E+04   -0.85749E-05   -0.88313E-07  1127   0.117E-03    0.231E-03
RMM:  41    -0.125416431460E+04   -0.57538E-05   -0.73865E-07  1109   0.105E-03    0.792E-04
RMM:  42    -0.125416431721E+04   -0.26018E-05   -0.48662E-07  1002   0.919E-04    0.444E-04
RMM:  43    -0.125416431899E+04   -0.17888E-05   -0.36161E-07   968   0.758E-04    0.250E-04
RMM:  44    -0.125416432015E+04   -0.11551E-05   -0.25307E-07   937   0.682E-04    0.195E-04
RMM:  45    -0.125416432069E+04   -0.53764E-06   -0.17003E-07   877   0.564E-04
  11 F= -.12626534E+04 E0= -.12626421E+04  d E =-.503685E-01  mag=    42.4868
       N       E                     dE             d eps       ncg     rms          rms(c)
DAV:   1    -0.125416482309E+04   -0.50294E-03   -0.25030E+00  2208   0.326E+00    0.583E-01
RMM:   2    -0.125416983834E+04   -0.50153E-02   -0.46479E-02  2431   0.476E-01    0.376E-01
RMM:   3    -0.125417339030E+04   -0.35520E-02   -0.68197E-03  2528   0.181E-01    0.122E+00
RMM:   4    -0.125417107957E+04    0.23107E-02   -0.27084E-03  2661   0.996E-02    0.736E-01
RMM:   5    -0.125417136599E+04   -0.28642E-03   -0.13129E-03  2345   0.781E-02    0.305E-01
RMM:   6    -0.125417154307E+04   -0.17708E-03   -0.56465E-04  2405   0.481E-02    0.266E-01
RMM:   7    -0.125417146517E+04    0.77896E-04   -0.40202E-04  2455   0.394E-02    0.170E-01
RMM:   8    -0.125417159689E+04   -0.13172E-03   -0.32093E-04  2363   0.378E-02    0.212E-01
RMM:   9    -0.125417158555E+04    0.11341E-04   -0.25803E-04  2300   0.336E-02    0.181E-01
RMM:  10    -0.125417156192E+04    0.23629E-04   -0.85325E-05  2076   0.209E-02    0.670E-02
RMM:  11    -0.125417159854E+04   -0.36623E-04   -0.17680E-05  1700   0.881E-03    0.659E-02
RMM:  12    -0.125417159871E+04   -0.16319E-06   -0.68891E-06  1542   0.559E-03
  12 F= -.12626601E+04 E0= -.12626490E+04  d E =-.570833E-01  mag=    42.4763
       N       E                     dE             d eps       ncg     rms          rms(c)
DAV:   1    -0.125414906601E+04    0.22533E-01   -0.22413E+01  2104   0.941E+00    0.194E+00
RMM:   2    -0.125422096728E+04   -0.71901E-01   -0.42673E-01  2468   0.147E+00    0.569E+00
RMM:   3    -0.125424637778E+04   -0.25410E-01   -0.12247E-01  2571   0.695E-01    0.417E+00
RMM:   4    -0.125422326939E+04    0.23108E-01   -0.41797E-02  2470   0.453E-01    0.223E+00
RMM:   5    -0.125421930431E+04    0.39651E-02   -0.10638E-02  2519   0.206E-01    0.228E+00
RMM:   6    -0.125421572097E+04    0.35833E-02   -0.43517E-03  2531   0.120E-01    0.165E+00
RMM:   7    -0.125421533523E+04    0.38574E-03   -0.40773E-03  2392   0.123E-01    0.964E-01
RMM:   8    -0.125421865610E+04   -0.33209E-02   -0.45933E-03  2357   0.140E-01    0.178E+00
RMM:   9    -0.125421983049E+04   -0.11744E-02   -0.43855E-03  2285   0.158E-01    0.244E+00
RMM:  10    -0.125421377469E+04    0.60558E-02   -0.19251E-03  2314   0.974E-02    0.169E+00
RMM:  11    -0.125421440999E+04   -0.63529E-03   -0.93940E-04  2293   0.555E-02    0.333E-01
RMM:  12    -0.125421823916E+04   -0.38292E-02   -0.11208E-03  2176   0.811E-02    0.358E-01
RMM:  13    -0.125421849923E+04   -0.26006E-03   -0.42683E-04  2238   0.477E-02    0.296E-01
RMM:  14    -0.125421860733E+04   -0.10810E-03   -0.15229E-04  2176   0.235E-02    0.619E-01
RMM:  15    -0.125421854757E+04    0.59759E-04   -0.20293E-04  2071   0.307E-02    0.950E-01
RMM:  16    -0.125421772790E+04    0.81967E-03   -0.33679E-04  2126   0.398E-02    0.706E-01
RMM:  17    -0.125421803502E+04   -0.30712E-03   -0.46902E-04  2297   0.435E-02    0.315E-01
RMM:  18    -0.125421869706E+04   -0.66204E-03   -0.35201E-04  2238   0.458E-02    0.253E-01
RMM:  19    -0.125421878346E+04   -0.86404E-04   -0.11947E-04  2044   0.270E-02    0.124E-01
RMM:  20    -0.125421879836E+04   -0.14897E-04   -0.27033E-05  1837   0.113E-02    0.106E-01
RMM:  21    -0.125421882237E+04   -0.24012E-04   -0.11863E-05  1638   0.740E-03    0.846E-02
RMM:  22    -0.125421891088E+04   -0.88512E-04   -0.22939E-05  1877   0.864E-03    0.640E-02
RMM:  23    -0.125421895541E+04   -0.44531E-04   -0.18288E-05  1721   0.871E-03    0.611E-02
RMM:  24    -0.125421897818E+04   -0.22770E-04   -0.97358E-06  1584   0.740E-03    0.442E-02
RMM:  25    -0.125421900898E+04   -0.30802E-04   -0.38233E-06  1482   0.452E-03    0.261E-02
RMM:  26    -0.125421903925E+04   -0.30264E-04   -0.25048E-06  1419   0.341E-03    0.191E-02
RMM:  27    -0.125421907969E+04   -0.40440E-04   -0.21299E-06  1394   0.308E-03    0.304E-02
RMM:  28    -0.125421912049E+04   -0.40807E-04   -0.17347E-06  1326   0.244E-03    0.426E-02
RMM:  29    -0.125421913150E+04   -0.11006E-04   -0.10375E-06  1215   0.236E-03    0.403E-02
RMM:  30    -0.125421916282E+04   -0.31320E-04   -0.11198E-06  1244   0.186E-03    0.182E-02
RMM:  31    -0.125421920674E+04   -0.43921E-04   -0.15179E-06  1265   0.172E-03    0.748E-03
RMM:  32    -0.125421923060E+04   -0.23857E-04   -0.11793E-06  1257   0.195E-03    0.177E-02
RMM:  33    -0.125421924335E+04   -0.12753E-04   -0.85685E-07  1191   0.181E-03    0.189E-02
RMM:  34    -0.125421926544E+04   -0.22090E-04   -0.10078E-06  1185   0.143E-03    0.854E-03
RMM:  35    -0.125421928753E+04   -0.22089E-04   -0.11082E-06  1209   0.133E-03    0.157E-03
RMM:  36    -0.125421930020E+04   -0.12675E-04   -0.95901E-07  1176   0.122E-03    0.585E-03
RMM:  37    -0.125421930890E+04   -0.86991E-05   -0.83273E-07  1175   0.118E-03    0.479E-03
RMM:  38    -0.125421931317E+04   -0.42629E-05   -0.59629E-07  1091   0.102E-03    0.265E-03
RMM:  39    -0.125421931556E+04   -0.23950E-05   -0.42286E-07   996   0.827E-04    0.118E-03
RMM:  40    -0.125421931728E+04   -0.17199E-05   -0.30711E-07   952   0.723E-04    0.374E-04
RMM:  41    -0.125421931830E+04   -0.10150E-05   -0.21809E-07   917   0.624E-04    0.443E-04
RMM:  42    -0.125421931886E+04   -0.56764E-06   -0.15132E-07   862   0.546E-04
  13 F= -.12627082E+04 E0= -.12626974E+04  d E =-.481010E-01  mag=    42.4500
       N       E                     dE             d eps       ncg     rms          rms(c)
DAV:   1    -0.125421931053E+04    0.77633E-05   -0.31381E-02  2280   0.352E-01    0.735E-02
RMM:   2    -0.125421937051E+04   -0.59977E-04   -0.59965E-04  2465   0.554E-02    0.204E-01
RMM:   3    -0.125421944435E+04   -0.73846E-04   -0.17520E-04  2504   0.266E-02    0.380E-01
RMM:   4    -0.125421924258E+04    0.20178E-03   -0.11584E-04  2197   0.253E-02    0.906E-02
RMM:   5    -0.125421935038E+04   -0.10780E-03   -0.23671E-05  1780   0.115E-02    0.385E-02
RMM:   6    -0.125421939123E+04   -0.40853E-04   -0.10115E-05  1752   0.777E-03    0.450E-02
RMM:   7    -0.125421939540E+04   -0.41643E-05   -0.64821E-06  1534   0.627E-03    0.562E-02
RMM:   8    -0.125421939119E+04    0.42059E-05   -0.41796E-06  1469   0.504E-03    0.333E-02
RMM:   9    -0.125421939703E+04   -0.58407E-05   -0.33867E-06  1441   0.420E-03    0.278E-02
RMM:  10    -0.125421940164E+04   -0.46035E-05   -0.23997E-06  1409   0.397E-03    0.352E-02
RMM:  11    -0.125421939851E+04    0.31287E-05   -0.73347E-07  1223   0.232E-03    0.208E-02
RMM:  12    -0.125421939978E+04   -0.12767E-05   -0.27736E-07  1196   0.139E-03    0.109E-02
RMM:  13    -0.125421940165E+04   -0.18692E-05   -0.13077E-07  1176   0.884E-04    0.734E-03
RMM:  14    -0.125421940215E+04   -0.49822E-06   -0.60735E-08  1133   0.605E-04
  14 F= -.12627083E+04 E0= -.12626975E+04  d E =-.481711E-01  mag=    42.4506
       N       E                     dE             d eps       ncg     rms          rms(c)
DAV:   1    -0.125421625393E+04    0.31477E-02   -0.15156E+01  2104   0.762E+00    0.154E+00
RMM:   2    -0.125425325197E+04   -0.36998E-01   -0.27311E-01  2480   0.116E+00    0.978E-01
RMM:   3    -0.125428246248E+04   -0.29211E-01   -0.41915E-02  2551   0.437E-01    0.516E+00
RMM:   4    -0.125424811541E+04    0.34347E-01   -0.19367E-02  2559   0.297E-01    0.920E-01
RMM:   5    -0.125426256074E+04   -0.14445E-01   -0.99815E-03  2341   0.231E-01    0.650E-01
RMM:   6    -0.125426404814E+04   -0.14874E-02   -0.29983E-03  2513   0.112E-01    0.615E-01
RMM:   7    -0.125426396276E+04    0.85384E-04   -0.20210E-03  2463   0.945E-02    0.537E-01
RMM:   8    -0.125426495500E+04   -0.99225E-03   -0.18343E-03  2394   0.842E-02    0.702E-01
RMM:   9    -0.125426407521E+04    0.87980E-03   -0.12733E-03  2356   0.729E-02    0.408E-01
RMM:  10    -0.125426435772E+04   -0.28251E-03   -0.27144E-04  2367   0.339E-02    0.202E-01
RMM:  11    -0.125426463952E+04   -0.28180E-03   -0.17905E-04  2145   0.312E-02    0.267E-01
RMM:  12    -0.125426453148E+04    0.10804E-03   -0.64989E-05  2026   0.183E-02    0.237E-01
RMM:  13    -0.125426447426E+04    0.57224E-04   -0.27408E-05  1860   0.996E-03    0.161E-01
RMM:  14    -0.125426451509E+04   -0.40830E-04   -0.32564E-05  1859   0.113E-02    0.110E-01
RMM:  15    -0.125426461889E+04   -0.10380E-03   -0.72757E-05  1991   0.183E-02    0.144E-01
RMM:  16    -0.125426467833E+04   -0.59443E-04   -0.10137E-04  2080   0.213E-02    0.125E-01
RMM:  17    -0.125426474338E+04   -0.65049E-04   -0.56900E-05  1992   0.163E-02    0.830E-02
RMM:  18    -0.125426478643E+04   -0.43051E-04   -0.21104E-05  1780   0.104E-02    0.546E-02
RMM:  19    -0.125426479461E+04   -0.81818E-05   -0.13920E-05  1627   0.792E-03    0.566E-02
RMM:  20    -0.125426480862E+04   -0.14010E-04   -0.10033E-05  1612   0.699E-03    0.361E-02
RMM:  21    -0.125426484497E+04   -0.36347E-04   -0.74401E-06  1600   0.527E-03    0.224E-02
RMM:  22    -0.125426486802E+04   -0.23048E-04   -0.41462E-06  1467   0.434E-03    0.313E-02
RMM:  23    -0.125426489054E+04   -0.22525E-04   -0.17044E-06  1352   0.299E-03    0.337E-02
RMM:  24    -0.125426490095E+04   -0.10405E-04   -0.64864E-07  1209   0.178E-03    0.302E-02
RMM:  25    -0.125426490591E+04   -0.49576E-05   -0.36312E-07  1112   0.137E-03    0.269E-02
RMM:  26    -0.125426492064E+04   -0.14739E-04   -0.32731E-07  1078   0.113E-03    0.196E-02
RMM:  27    -0.125426497071E+04   -0.50069E-04   -0.11786E-06  1293   0.161E-03    0.134E-02
RMM:  28    -0.125426501818E+04   -0.47465E-04   -0.11954E-06  1274   0.162E-03    0.755E-03
RMM:  29    -0.125426503658E+04   -0.18404E-04   -0.77366E-07  1195   0.165E-03    0.647E-03
RMM:  30    -0.125426504732E+04   -0.10733E-04   -0.52927E-07  1119   0.139E-03    0.466E-03
RMM:  31    -0.125426505928E+04   -0.11966E-04   -0.38530E-07  1082   0.993E-04    0.655E-03
RMM:  32    -0.125426506908E+04   -0.98020E-05   -0.32420E-07  1093   0.923E-04    0.595E-03
RMM:  33    -0.125426508043E+04   -0.11346E-04   -0.33129E-07  1040   0.841E-04    0.249E-03
RMM:  34    -0.125426509775E+04   -0.17317E-04   -0.48225E-07  1100   0.835E-04    0.336E-03
RMM:  35    -0.125426510860E+04   -0.10853E-04   -0.40628E-07  1093   0.847E-04    0.506E-03
RMM:  36    -0.125426511695E+04   -0.83486E-05   -0.38145E-07  1055   0.756E-04    0.382E-03
RMM:  37    -0.125426512442E+04   -0.74667E-05   -0.35517E-07  1016   0.748E-04    0.854E-04
RMM:  38    -0.125426512877E+04   -0.43535E-05   -0.29333E-07   951   0.681E-04    0.115E-03
RMM:  39    -0.125426513254E+04   -0.37683E-05   -0.27466E-07  1006   0.652E-04    0.116E-03
RMM:  40    -0.125426513519E+04   -0.26538E-05   -0.24971E-07   979   0.620E-04    0.237E-04
RMM:  41    -0.125426513635E+04   -0.11580E-05   -0.18707E-07   881   0.561E-04    0.458E-04
RMM:  42    -0.125426513691E+04   -0.55577E-06   -0.13006E-07   805   0.487E-04
  15 F= -.12627534E+04 E0= -.12627422E+04  d E =-.450758E-01  mag=    42.4725
       N       E                     dE             d eps       ncg     rms          rms(c)
DAV:   1    -0.125425239302E+04    0.12743E-01   -0.68671E+00  2118   0.512E+00    0.104E+00
RMM:   2    -0.125426864488E+04   -0.16252E-01   -0.12257E-01  2485   0.777E-01    0.607E-01
RMM:   3    -0.125427523331E+04   -0.65884E-02   -0.16771E-02  2569   0.274E-01    0.918E-01
RMM:   4    -0.125427538911E+04   -0.15580E-03   -0.52193E-03  2595   0.142E-01    0.175E+00
RMM:   5    -0.125427148610E+04    0.39030E-02   -0.27613E-03  2412   0.113E-01    0.428E-01
RMM:   6    -0.125427354415E+04   -0.20580E-02   -0.13881E-03  2351   0.829E-02    0.398E-01
RMM:   7    -0.125427367958E+04   -0.13544E-03   -0.90104E-04  2491   0.630E-02    0.301E-01
RMM:   8    -0.125427397777E+04   -0.29819E-03   -0.53785E-04  2412   0.484E-02    0.393E-01
RMM:   9    -0.125427400782E+04   -0.30046E-04   -0.44947E-04  2303   0.450E-02    0.324E-01
RMM:  10    -0.125427394086E+04    0.66957E-04   -0.18767E-04  2219   0.295E-02    0.100E-01
RMM:  11    -0.125427408650E+04   -0.14563E-03   -0.61334E-05  1985   0.174E-02    0.134E-01
RMM:  12    -0.125427406164E+04    0.24861E-04   -0.21553E-05  1767   0.106E-02    0.110E-01
RMM:  13    -0.125427405245E+04    0.91865E-05   -0.81510E-06  1623   0.531E-03    0.850E-02
RMM:  14    -0.125427408050E+04   -0.28054E-04   -0.23622E-05  1830   0.975E-03    0.101E-01
RMM:  15    -0.125427411120E+04   -0.30692E-04   -0.47734E-05  1934   0.150E-02    0.122E-01
RMM:  16    -0.125427414917E+04   -0.37970E-04   -0.41991E-05  1938   0.140E-02    0.678E-02
RMM:  17    -0.125427418686E+04   -0.37698E-04   -0.24481E-05  1702   0.107E-02    0.628E-02
RMM:  18    -0.125427419542E+04   -0.85575E-05   -0.89128E-06  1616   0.715E-03    0.370E-02
RMM:  19    -0.125427420005E+04   -0.46242E-05   -0.53909E-06  1503   0.509E-03    0.317E-02
RMM:  20    -0.125427421074E+04   -0.10692E-04   -0.37647E-06  1477   0.433E-03    0.318E-02
RMM:  21    -0.125427423031E+04   -0.19575E-04   -0.27270E-06  1400   0.329E-03    0.112E-02
RMM:  22    -0.125427424312E+04   -0.12802E-04   -0.15097E-06  1343   0.284E-03    0.170E-02
RMM:  23    -0.125427425491E+04   -0.11792E-04   -0.73203E-07  1199   0.204E-03    0.214E-02
RMM:  24    -0.125427425941E+04   -0.45042E-05   -0.37463E-07  1112   0.132E-03    0.139E-02
RMM:  25    -0.125427426511E+04   -0.56957E-05   -0.25084E-07  1061   0.109E-03    0.872E-03
RMM:  26    -0.125427427718E+04   -0.12068E-04   -0.26814E-07  1063   0.102E-03    0.499E-03
RMM:  27    -0.125427430181E+04   -0.24633E-04   -0.51376E-07  1218   0.112E-03    0.353E-03
RMM:  28    -0.125427432300E+04   -0.21188E-04   -0.56173E-07  1190   0.122E-03    0.554E-03
RMM:  29    -0.125427433336E+04   -0.10367E-04   -0.44688E-07  1092   0.122E-03    0.557E-03
RMM:  30    -0.125427434336E+04   -0.99949E-05   -0.35129E-07  1064   0.858E-04    0.456E-03
RMM:  31    -0.125427434978E+04   -0.64250E-05   -0.24942E-07   993   0.745E-04    0.236E-03
RMM:  32    -0.125427435351E+04   -0.37314E-05   -0.18590E-07   903   0.651E-04    0.136E-03
RMM:  33    -0.125427435930E+04   -0.57846E-05   -0.17720E-07   952   0.587E-04    0.930E-04
RMM:  34    -0.125427436637E+04   -0.70733E-05   -0.20436E-07  1001   0.576E-04    0.864E-04
RMM:  35    -0.125427437290E+04   -0.65276E-05   -0.23029E-07   999   0.602E-04    0.149E-03
RMM:  36    -0.125427437820E+04   -0.53019E-05   -0.25704E-07  1020   0.612E-04    0.136E-03
RMM:  37    -0.125427438073E+04   -0.25264E-05   -0.19457E-07   956   0.583E-04    0.604E-04
RMM:  38    -0.125427438259E+04   -0.18610E-05   -0.16108E-07   878   0.505E-04    0.335E-04
RMM:  39    -0.125427438381E+04   -0.12154E-05   -0.12748E-07   847   0.493E-04    0.534E-04
RMM:  40    -0.125427438461E+04   -0.80866E-06   -0.10520E-07   811   0.439E-04
  16 F= -.12627621E+04 E0= -.12627508E+04  d E =-.538469E-01  mag=    42.4871
       N       E                     dE             d eps       ncg     rms          rms(c)
DAV:   1    -0.125425674197E+04    0.17642E-01   -0.15570E+01  2104   0.810E+00    0.144E+00
RMM:   2    -0.125430304188E+04   -0.46300E-01   -0.28291E-01  2394   0.117E+00    0.433E+00
RMM:   3    -0.125431873474E+04   -0.15693E-01   -0.68687E-02  2463   0.543E-01    0.374E+00
RMM:   4    -0.125430518174E+04    0.13553E-01   -0.29736E-02  2504   0.380E-01    0.211E+00
RMM:   5    -0.125429940529E+04    0.57764E-02   -0.77631E-03  2398   0.178E-01    0.162E+00
RMM:   6    -0.125429909671E+04    0.30859E-03   -0.31788E-03  2441   0.104E-01    0.114E+00
RMM:   7    -0.125429929788E+04   -0.20118E-03   -0.21443E-03  2537   0.880E-02    0.487E-01
RMM:   8    -0.125430141651E+04   -0.21186E-02   -0.20120E-03  2388   0.962E-02    0.106E+00
RMM:   9    -0.125430127193E+04    0.14458E-03   -0.16708E-03  2334   0.961E-02    0.123E+00
RMM:  10    -0.125429965406E+04    0.16179E-02   -0.72057E-04  2397   0.592E-02    0.764E-01
RMM:  11    -0.125430016615E+04   -0.51209E-03   -0.37434E-04  2318   0.397E-02    0.215E-01
RMM:  12    -0.125430114478E+04   -0.97863E-03   -0.38863E-04  2169   0.471E-02    0.273E-01
RMM:  13    -0.125430118186E+04   -0.37075E-04   -0.19602E-04  2164   0.328E-02    0.137E-01
RMM:  14    -0.125430130635E+04   -0.12449E-03   -0.13495E-04  2128   0.219E-02    0.440E-01
RMM:  15    -0.125430115644E+04    0.14992E-03   -0.12622E-04  2011   0.257E-02    0.597E-01
RMM:  16    -0.125430084087E+04    0.31556E-03   -0.13539E-04  2113   0.253E-02    0.361E-01
RMM:  17    -0.125430101831E+04   -0.17743E-03   -0.13379E-04  2170   0.250E-02    0.135E-01
RMM:  18    -0.125430127621E+04   -0.25791E-03   -0.66799E-05  1978   0.202E-02    0.149E-01
RMM:  19    -0.125430129943E+04   -0.23223E-04   -0.43930E-05  1931   0.157E-02    0.497E-02
RMM:  20    -0.125430131298E+04   -0.13540E-04   -0.10362E-05  1590   0.718E-03    0.456E-02
RMM:  21    -0.125430132912E+04   -0.16147E-04   -0.64301E-06  1558   0.524E-03    0.220E-02
RMM:  22    -0.125430135722E+04   -0.28094E-04   -0.60948E-06  1555   0.477E-03    0.395E-02
RMM:  23    -0.125430136267E+04   -0.54538E-05   -0.36828E-06  1460   0.453E-03    0.367E-02
RMM:  24    -0.125430136852E+04   -0.58491E-05   -0.11191E-06  1283   0.250E-03    0.897E-03
RMM:  25    -0.125430138296E+04   -0.14442E-04   -0.84325E-07  1225   0.209E-03    0.165E-02
RMM:  26    -0.125430138998E+04   -0.70182E-05   -0.75311E-07  1212   0.210E-03    0.186E-02
RMM:  27    -0.125430140929E+04   -0.19307E-04   -0.72432E-07  1261   0.170E-03    0.408E-03
RMM:  28    -0.125430142752E+04   -0.18235E-04   -0.63244E-07  1235   0.144E-03    0.158E-02
RMM:  29    -0.125430143459E+04   -0.70713E-05   -0.45258E-07  1188   0.133E-03    0.181E-02
RMM:  30    -0.125430143754E+04   -0.29519E-05   -0.30611E-07  1115   0.117E-03    0.156E-02
RMM:  31    -0.125430144501E+04   -0.74665E-05   -0.25090E-07  1093   0.853E-04    0.560E-03
RMM:  32    -0.125430145680E+04   -0.11788E-04   -0.30362E-07  1065   0.824E-04    0.631E-03
RMM:  33    -0.125430146353E+04   -0.67331E-05   -0.29471E-07  1120   0.984E-04    0.845E-03
RMM:  34    -0.125430146840E+04   -0.48727E-05   -0.25125E-07  1095   0.838E-04    0.663E-03
RMM:  35    -0.125430147722E+04   -0.88132E-05   -0.32986E-07  1099   0.735E-04    0.916E-04
RMM:  36    -0.125430148205E+04   -0.48349E-05   -0.26664E-07   985   0.728E-04    0.258E-03
RMM:  37    -0.125430148567E+04   -0.36156E-05   -0.25982E-07  1044   0.634E-04    0.277E-03
RMM:  38    -0.125430148804E+04   -0.23675E-05   -0.20217E-07   997   0.635E-04    0.112E-03
RMM:  39    -0.125430148956E+04   -0.15288E-05   -0.16744E-07   887   0.514E-04    0.214E-04
RMM:  40    -0.125430149069E+04   -0.11217E-05   -0.13284E-07   895   0.515E-04    0.508E-04
RMM:  41    -0.125430149130E+04   -0.61686E-06   -0.10444E-07   820   0.439E-04
  17 F= -.12627884E+04 E0= -.12627772E+04  d E =-.263249E-01  mag=    42.4756
       N       E                     dE             d eps       ncg     rms          rms(c)
DAV:   1    -0.125430145945E+04    0.31237E-04   -0.59193E-02  2296   0.499E-01    0.890E-02
RMM:   2    -0.125430157704E+04   -0.11759E-03   -0.10686E-03  2392   0.720E-02    0.231E-01
RMM:   3    -0.125430173586E+04   -0.15882E-03   -0.26404E-04  2409   0.336E-02    0.482E-01
RMM:   4    -0.125430140006E+04    0.33580E-03   -0.19431E-04  2269   0.320E-02    0.140E-01
RMM:   5    -0.125430153188E+04   -0.13181E-03   -0.42748E-05  1870   0.147E-02    0.479E-02
RMM:   6    -0.125430160233E+04   -0.70455E-04   -0.14302E-05  1908   0.840E-03    0.419E-02
RMM:   7    -0.125430161894E+04   -0.16612E-04   -0.10537E-05  1694   0.764E-03    0.637E-02
RMM:   8    -0.125430161220E+04    0.67382E-05   -0.60654E-06  1570   0.593E-03    0.400E-02
RMM:   9    -0.125430161708E+04   -0.48813E-05   -0.45843E-06  1473   0.504E-03    0.268E-02
RMM:  10    -0.125430162245E+04   -0.53689E-05   -0.27133E-06  1424   0.416E-03    0.331E-02
RMM:  11    -0.125430162090E+04    0.15553E-05   -0.99205E-07  1236   0.268E-03    0.266E-02
RMM:  12    -0.125430162048E+04    0.41881E-06   -0.48046E-07  1200   0.192E-03
  18 F= -.12627885E+04 E0= -.12627774E+04  d E =-.264054E-01  mag=    42.4750
       N       E                     dE             d eps       ncg     rms          rms(c)
DAV:   1    -0.125428400142E+04    0.17619E-01   -0.13588E+01  2104   0.772E+00    0.124E+00
RMM:   2    -0.125431438331E+04   -0.30382E-01   -0.25018E-01  2389   0.107E+00    0.125E+00
RMM:   3    -0.125439691809E+04   -0.82535E-01   -0.47593E-02  2402   0.486E-01    0.971E+00
RMM:   4    -0.125427319661E+04    0.12372E+00   -0.44249E-02  2434   0.467E-01    0.234E+00
RMM:   5    -0.125430773876E+04   -0.34542E-01   -0.10543E-02  2309   0.229E-01    0.977E-01
RMM:   6    -0.125431733349E+04   -0.95947E-02   -0.38254E-03  2290   0.141E-01    0.556E-01
RMM:   7    -0.125431949557E+04   -0.21621E-02   -0.23102E-03  2434   0.100E-01    0.778E-01
RMM:   8    -0.125432014266E+04   -0.64709E-03   -0.14135E-03  2326   0.854E-02    0.112E+00
RMM:   9    -0.125431938854E+04    0.75412E-03   -0.11937E-03  2348   0.744E-02    0.107E+00
RMM:  10    -0.125431833375E+04    0.10548E-02   -0.58925E-04  2404   0.516E-02    0.502E-01
RMM:  11    -0.125431964065E+04   -0.13069E-02   -0.42836E-04  2289   0.444E-02    0.279E-01
RMM:  12    -0.125432032574E+04   -0.68508E-03   -0.36239E-04  2237   0.476E-02    0.478E-01
RMM:  13    -0.125432004329E+04    0.28244E-03   -0.13373E-04  2057   0.288E-02    0.433E-01
RMM:  14    -0.125431990859E+04    0.13470E-03   -0.49903E-05  1996   0.147E-02    0.294E-01
RMM:  15    -0.125432001974E+04   -0.11115E-03   -0.46521E-05  1989   0.144E-02    0.104E-01
RMM:  16    -0.125432021788E+04   -0.19814E-03   -0.52978E-05  1944   0.172E-02    0.815E-02
RMM:  17    -0.125432032481E+04   -0.10693E-03   -0.22523E-05  1797   0.112E-02    0.797E-02
RMM:  18    -0.125432043297E+04   -0.10816E-03   -0.10400E-05  1648   0.671E-03    0.861E-02
RMM:  19    -0.125432047337E+04   -0.40398E-04   -0.10484E-05  1570   0.687E-03    0.800E-02
RMM:  20    -0.125432050272E+04   -0.29360E-04   -0.45258E-06  1493   0.506E-03    0.501E-02
RMM:  21    -0.125432052100E+04   -0.18271E-04   -0.18704E-06  1350   0.304E-03    0.359E-02
RMM:  22    -0.125432053405E+04   -0.13052E-04   -0.13053E-06  1302   0.276E-03    0.292E-02
RMM:  23    -0.125432055444E+04   -0.20387E-04   -0.97381E-07  1212   0.231E-03    0.220E-02
RMM:  24    -0.125432061235E+04   -0.57918E-04   -0.20800E-06  1355   0.248E-03    0.161E-02
RMM:  25    -0.125432064786E+04   -0.35502E-04   -0.15192E-06  1311   0.254E-03    0.182E-02
RMM:  26    -0.125432067008E+04   -0.22222E-04   -0.84786E-07  1189   0.190E-03    0.154E-02
RMM:  27    -0.125432069709E+04   -0.27014E-04   -0.61414E-07  1153   0.126E-03    0.128E-02
RMM:  28    -0.125432073657E+04   -0.39481E-04   -0.91760E-07  1198   0.126E-03    0.499E-03
RMM:  29    -0.125432078240E+04   -0.45823E-04   -0.12914E-06  1277   0.153E-03    0.842E-03
RMM:  30    -0.125432079543E+04   -0.13031E-04   -0.72360E-07  1165   0.161E-03    0.111E-02
RMM:  31    -0.125432081812E+04   -0.22693E-04   -0.74773E-07  1161   0.122E-03    0.888E-03
RMM:  32    -0.125432083776E+04   -0.19641E-04   -0.62898E-07  1109   0.111E-03    0.423E-03
RMM:  33    -0.125432085417E+04   -0.16412E-04   -0.64533E-07  1061   0.102E-03    0.300E-03
RMM:  34    -0.125432087094E+04   -0.16764E-04   -0.71053E-07  1137   0.110E-03    0.549E-03
RMM:  35    -0.125432088751E+04   -0.16571E-04   -0.90811E-07  1185   0.105E-03    0.456E-03
RMM:  36    -0.125432089670E+04   -0.91878E-05   -0.70233E-07  1115   0.101E-03    0.238E-03
RMM:  37    -0.125432090310E+04   -0.64089E-05   -0.61481E-07  1067   0.882E-04    0.120E-03
RMM:  38    -0.125432090641E+04   -0.33079E-05   -0.44691E-07  1021   0.860E-04    0.102E-03
RMM:  39    -0.125432090775E+04   -0.13356E-05   -0.29180E-07   923   0.676E-04    0.964E-04
RMM:  40    -0.125432090895E+04   -0.12010E-05   -0.21680E-07   928   0.624E-04    0.198E-04
RMM:  41    -0.125432090974E+04   -0.79119E-06   -0.16049E-07   874   0.532E-04
  19 F= -.12628072E+04 E0= -.12627956E+04  d E =-.186861E-01  mag=    42.5060
       N       E                     dE             d eps       ncg     rms          rms(c)
DAV:   1    -0.125432085004E+04    0.58907E-04   -0.27013E-02  2296   0.344E-01    0.549E-02
RMM:   2    -0.125432088345E+04   -0.33403E-04   -0.49429E-04  2405   0.475E-02    0.732E-02
RMM:   3    -0.125432104992E+04   -0.16647E-03   -0.10248E-04  2336   0.222E-02    0.412E-01
RMM:   4    -0.125432071869E+04    0.33123E-03   -0.94576E-05  2182   0.223E-02    0.115E-01
RMM:   5    -0.125432084787E+04   -0.12918E-03   -0.19463E-05  1727   0.105E-02    0.396E-02
RMM:   6    -0.125432090507E+04   -0.57199E-04   -0.89906E-06  1740   0.741E-03    0.456E-02
RMM:   7    -0.125432091652E+04   -0.11449E-04   -0.65071E-06  1544   0.651E-03    0.684E-02
RMM:   8    -0.125432090671E+04    0.98070E-05   -0.30964E-06  1385   0.456E-03    0.540E-02
RMM:   9    -0.125432090794E+04   -0.12337E-05   -0.20020E-06  1318   0.348E-03    0.194E-02
RMM:  10    -0.125432091819E+04   -0.10245E-04   -0.17739E-06  1388   0.334E-03    0.216E-02
RMM:  11    -0.125432092038E+04   -0.21933E-05   -0.90912E-07  1233   0.255E-03    0.235E-02
RMM:  12    -0.125432091863E+04    0.17520E-05   -0.53943E-07  1216   0.201E-03    0.165E-02
RMM:  13    -0.125432091942E+04   -0.79353E-06   -0.26605E-07  1196   0.143E-03
  20 F= -.12628073E+04 E0= -.12627957E+04  d E =-.187236E-01  mag=    42.5050
       N       E                     dE             d eps       ncg     rms          rms(c)
DAV:   1    -0.125431550887E+04    0.54098E-02   -0.72479E+00  2104   0.577E+00    0.910E-01
RMM:   2    -0.125433509856E+04   -0.19590E-01   -0.15594E-01  2445   0.856E-01    0.212E+00
RMM:   3    -0.125435085313E+04   -0.15755E-01   -0.29715E-02  2447   0.378E-01    0.332E+00
RMM:   4    -0.125433207278E+04    0.18780E-01   -0.14242E-02  2563   0.268E-01    0.127E+00
RMM:   5    -0.125433366122E+04   -0.15884E-02   -0.28891E-03  2452   0.109E-01    0.868E-01
[...]
RMM:  25    -0.125455338829E+04   -0.31744E-05   -0.11260E-07   971   0.626E-04    0.112E-02
RMM:  26    -0.125455339222E+04   -0.39231E-05   -0.11803E-07   906   0.669E-04    0.600E-03
RMM:  27    -0.125455339749E+04   -0.52762E-05   -0.13647E-07  1018   0.602E-04    0.121E-03
RMM:  28    -0.125455340080E+04   -0.33045E-05   -0.11537E-07  1034   0.612E-04    0.206E-03
RMM:  29    -0.125455340229E+04   -0.14929E-05   -0.86776E-08   941   0.548E-04    0.228E-03
RMM:  30    -0.125455340487E+04   -0.25821E-05   -0.83722E-08   850   0.454E-04    0.105E-03
RMM:  31    -0.125455340792E+04   -0.30418E-05   -0.10028E-07   835   0.437E-04    0.963E-04
RMM:  32    -0.125455341067E+04   -0.27585E-05   -0.12628E-07   895   0.461E-04    0.165E-03
RMM:  33    -0.125455341257E+04   -0.18990E-05   -0.13303E-07   914   0.480E-04    0.461E-04
RMM:  34    -0.125455341312E+04   -0.54255E-06   -0.89616E-08   826   0.448E-04
 153 F= -.12631094E+04 E0= -.12630956E+04  d E =-.134943E-02  mag=    42.8019
       N       E                     dE             d eps       ncg     rms          rms(c)
DAV:   1    -0.125455286493E+04    0.54764E-03   -0.44650E-01  2150   0.132E+00    0.141E-01
RMM:   2    -0.125455366648E+04   -0.80155E-03   -0.88342E-03  2212   0.163E-01    0.825E-02
RMM:   3    -0.125455382643E+04   -0.15996E-03   -0.72516E-04  2208   0.694E-02    0.189E-01
RMM:   4    -0.125455378620E+04    0.40235E-04   -0.30179E-04  2687   0.289E-02    0.231E-01
RMM:   5    -0.125455372793E+04    0.58273E-04   -0.68336E-05  2032   0.185E-02    0.827E-02
RMM:   6    -0.125455378583E+04   -0.57904E-04   -0.40216E-05  1992   0.129E-02    0.642E-02
RMM:   7    -0.125455379887E+04   -0.13042E-04   -0.37949E-05  1965   0.127E-02    0.778E-02
RMM:   8    -0.125455379833E+04    0.53748E-06   -0.25420E-05  1992   0.104E-02    0.448E-02
RMM:   9    -0.125455380208E+04   -0.37495E-05   -0.11023E-05  1596   0.733E-03    0.335E-02
RMM:  10    -0.125455380410E+04   -0.20113E-05   -0.39635E-06  1474   0.470E-03    0.203E-02
RMM:  11    -0.125455380727E+04   -0.31767E-05   -0.17909E-06  1388   0.339E-03    0.242E-02
RMM:  12    -0.125455380639E+04    0.88073E-06   -0.64931E-07  1226   0.212E-03
 154 F= -.12631095E+04 E0= -.12630958E+04  d E =-.146498E-02  mag=    42.8008
       N       E                     dE             d eps       ncg     rms          rms(c)
DAV:   1    -0.125455161387E+04    0.21934E-02   -0.11766E+00  2104   0.212E+00    0.214E-01
RMM:   2    -0.125455402055E+04   -0.24067E-02   -0.22793E-02  2211   0.261E-01    0.659E-01
RMM:   3    -0.125455434341E+04   -0.32287E-03   -0.23257E-03  2205   0.119E-01    0.102E+00
RMM:   4    -0.125455343649E+04    0.90693E-03   -0.14195E-03  2589   0.806E-02    0.370E-01
RMM:   5    -0.125455373499E+04   -0.29851E-03   -0.31823E-04  2233   0.382E-02    0.174E-01
RMM:   6    -0.125455397448E+04   -0.23949E-03   -0.13333E-04  2297   0.230E-02    0.129E-01
RMM:   7    -0.125455402771E+04   -0.53230E-04   -0.10851E-04  2302   0.226E-02    0.118E-01
RMM:   8    -0.125455408123E+04   -0.53518E-04   -0.84541E-05  2285   0.189E-02    0.201E-01
RMM:   9    -0.125455403080E+04    0.50426E-04   -0.46904E-05  1943   0.150E-02    0.211E-01
RMM:  10    -0.125455398111E+04    0.49692E-04   -0.15494E-05  1711   0.829E-03    0.113E-01
RMM:  11    -0.125455402025E+04   -0.39142E-04   -0.96913E-06  1583   0.714E-03    0.412E-02
RMM:  12    -0.125455405574E+04   -0.35487E-04   -0.78274E-06  1603   0.706E-03    0.380E-02
RMM:  13    -0.125455406819E+04   -0.12452E-04   -0.58111E-06  1541   0.599E-03    0.460E-02
RMM:  14    -0.125455406349E+04    0.47024E-05   -0.32774E-06  1439   0.470E-03    0.335E-02
RMM:  15    -0.125455406458E+04   -0.10886E-05   -0.16574E-06  1350   0.327E-03    0.183E-02
RMM:  16    -0.125455406807E+04   -0.34885E-05   -0.80828E-07  1246   0.234E-03    0.693E-03
RMM:  17    -0.125455407007E+04   -0.20041E-05   -0.24203E-07  1099   0.111E-03    0.132E-02
RMM:  18    -0.125455406948E+04    0.59352E-06   -0.21317E-07  1071   0.112E-03
 155 F= -.12631103E+04 E0= -.12630966E+04  d E =-.800102E-03  mag=    42.8000
       N       E                     dE             d eps       ncg     rms          rms(c)
DAV:   1    -0.125454368381E+04    0.10386E-01   -0.48315E+00  2104   0.430E+00    0.438E-01
RMM:   2    -0.125455468738E+04   -0.11004E-01   -0.94270E-02  2206   0.531E-01    0.179E+00
RMM:   3    -0.125455268068E+04    0.20067E-02   -0.98328E-03  2203   0.246E-01    0.149E+00
RMM:   4    -0.125455327621E+04   -0.59553E-03   -0.51674E-03  2616   0.150E-01    0.682E-01
RMM:   5    -0.125455313691E+04    0.13930E-03   -0.10645E-03  2321   0.646E-02    0.402E-01
RMM:   6    -0.125455355519E+04   -0.41828E-03   -0.47015E-04  2355   0.408E-02    0.290E-01
RMM:   7    -0.125455370862E+04   -0.15343E-03   -0.45164E-04  2378   0.440E-02    0.242E-01
RMM:   8    -0.125455394086E+04   -0.23224E-03   -0.37633E-04  2368   0.407E-02    0.490E-01
RMM:   9    -0.125455372947E+04    0.21139E-03   -0.22161E-04  2247   0.344E-02    0.520E-01
RMM:  10    -0.125455349989E+04    0.22958E-03   -0.66750E-05  2055   0.172E-02    0.417E-01
RMM:  11    -0.125455350958E+04   -0.96950E-05   -0.24299E-05  1816   0.947E-03    0.270E-01
RMM:  12    -0.125455361815E+04   -0.10856E-03   -0.27214E-05  1859   0.120E-02    0.124E-01
RMM:  13    -0.125455373783E+04   -0.11968E-03   -0.33257E-05  1910   0.137E-02    0.633E-02
RMM:  14    -0.125455380320E+04   -0.65378E-04   -0.28698E-05  1868   0.130E-02    0.611E-02
RMM:  15    -0.125455381318E+04   -0.99739E-05   -0.72868E-06  1593   0.670E-03    0.194E-02
RMM:  16    -0.125455382181E+04   -0.86283E-05   -0.34100E-06  1455   0.466E-03    0.235E-02
RMM:  17    -0.125455382185E+04   -0.45184E-07   -0.12163E-06  1328   0.279E-03
 156 F= -.12631112E+04 E0= -.12630974E+04  d E =-.164412E-02  mag=    42.7991
       N       E                     dE             d eps       ncg     rms          rms(c)
DAV:   1    -0.125455263629E+04    0.11855E-02   -0.83798E-01  2104   0.178E+00    0.204E-01
RMM:   2    -0.125455652975E+04   -0.38935E-02   -0.17175E-02  2228   0.231E-01    0.191E+00
RMM:   3    -0.125455128941E+04    0.52403E-02   -0.28753E-03  2232   0.132E-01    0.132E-01
RMM:   4    -0.125455420690E+04   -0.29175E-02   -0.10492E-03  2557   0.725E-02    0.192E-01
RMM:   5    -0.125455439694E+04   -0.19004E-03   -0.24736E-04  2334   0.335E-02    0.304E-01
RMM:   6    -0.125455430302E+04    0.93923E-04   -0.92770E-05  2231   0.213E-02    0.274E-01
RMM:   7    -0.125455427153E+04    0.31493E-04   -0.79910E-05  2161   0.177E-02    0.145E-01
RMM:   8    -0.125455437058E+04   -0.99056E-04   -0.82103E-05  2142   0.181E-02    0.204E-01
RMM:   9    -0.125455442000E+04   -0.49420E-04   -0.77690E-05  2059   0.202E-02    0.383E-01
RMM:  10    -0.125455422491E+04    0.19510E-03   -0.41604E-05  1939   0.151E-02    0.394E-01
RMM:  11    -0.125455413181E+04    0.93098E-04   -0.12272E-05  1733   0.759E-03    0.330E-01
RMM:  12    -0.125455415558E+04   -0.23769E-04   -0.56857E-06  1533   0.538E-03    0.243E-01
RMM:  13    -0.125455422882E+04   -0.73241E-04   -0.90374E-06  1660   0.661E-03    0.896E-02
RMM:  14    -0.125455434569E+04   -0.11687E-03   -0.14278E-05  1744   0.927E-03    0.207E-02
RMM:  15    -0.125455439595E+04   -0.50257E-04   -0.87916E-06  1648   0.761E-03    0.196E-02
RMM:  16    -0.125455440030E+04   -0.43582E-05   -0.28673E-06  1434   0.455E-03    0.216E-02
RMM:  17    -0.125455439922E+04    0.10791E-05   -0.94570E-07  1246   0.303E-03    0.239E-02
RMM:  18    -0.125455439826E+04    0.96452E-06   -0.41918E-07  1185   0.177E-03
 157 F= -.12631123E+04 E0= -.12630985E+04  d E =-.112506E-02  mag=    42.7976
       N       E                     dE             d eps       ncg     rms          rms(c)
DAV:   1    -0.125455247259E+04    0.19266E-02   -0.83404E-01  2104   0.178E+00    0.195E-01
RMM:   2    -0.125455529419E+04   -0.28216E-02   -0.16778E-02  2225   0.227E-01    0.141E+00
RMM:   3    -0.125455242165E+04    0.28725E-02   -0.22359E-03  2224   0.117E-01    0.246E-01
RMM:   4    -0.125455425454E+04   -0.18329E-02   -0.96355E-04  2575   0.682E-02    0.244E-01
RMM:   5    -0.125455414800E+04    0.10654E-03   -0.20277E-04  2295   0.292E-02    0.253E-01
RMM:   6    -0.125455413837E+04    0.96349E-05   -0.92145E-05  2233   0.183E-02    0.215E-01
RMM:   7    -0.125455413318E+04    0.51930E-05   -0.77258E-05  2197   0.180E-02    0.121E-01
RMM:   8    -0.125455420856E+04   -0.75382E-04   -0.74787E-05  2245   0.170E-02    0.220E-01
RMM:   9    -0.125455419863E+04    0.99297E-05   -0.62938E-05  2007   0.189E-02    0.316E-01
RMM:  10    -0.125455407040E+04    0.12823E-03   -0.23293E-05  1870   0.113E-02    0.299E-01
RMM:  11    -0.125455403417E+04    0.36227E-04   -0.61560E-06  1555   0.535E-03    0.245E-01
RMM:  12    -0.125455406249E+04   -0.28322E-04   -0.43389E-06  1498   0.469E-03    0.173E-01
RMM:  13    -0.125455411779E+04   -0.55297E-04   -0.70007E-06  1590   0.589E-03    0.600E-02
RMM:  14    -0.125455418969E+04   -0.71900E-04   -0.96634E-06  1656   0.773E-03    0.218E-02
RMM:  15    -0.125455421883E+04   -0.29142E-04   -0.60671E-06  1565   0.649E-03    0.250E-02
RMM:  16    -0.125455421819E+04    0.64690E-06   -0.20532E-06  1388   0.409E-03
 158 F= -.12631127E+04 E0= -.12630989E+04  d E =-.148398E-02  mag=    42.7959
       N       E                     dE             d eps       ncg     rms          rms(c)
DAV:   1    -0.125455267342E+04    0.15454E-02   -0.87224E-01  2104   0.179E+00    0.193E-01
RMM:   2    -0.125455428413E+04   -0.16107E-02   -0.17230E-02  2251   0.224E-01    0.253E-01
RMM:   3    -0.125455612017E+04   -0.18360E-02   -0.19503E-03  2222   0.106E-01    0.151E+00
RMM:   4    -0.125455274577E+04    0.33744E-02   -0.14801E-03  2531   0.835E-02    0.398E-01
RMM:   5    -0.125455397680E+04   -0.12310E-02   -0.33691E-04  2236   0.429E-02    0.152E-01
RMM:   6    -0.125455441650E+04   -0.43970E-03   -0.14040E-04  2229   0.279E-02    0.167E-01
RMM:   7    -0.125455452177E+04   -0.10527E-03   -0.98774E-05  2292   0.217E-02    0.273E-01
RMM:   8    -0.125455443686E+04    0.84911E-04   -0.72313E-05  2140   0.185E-02    0.247E-01
RMM:   9    -0.125455439243E+04    0.44431E-04   -0.36847E-05  1952   0.126E-02    0.139E-01
RMM:  10    -0.125455443743E+04   -0.44998E-04   -0.20269E-05  1693   0.104E-02    0.447E-02
RMM:  11    -0.125455448617E+04   -0.48747E-04   -0.10686E-05  1645   0.763E-03    0.429E-02
RMM:  12    -0.125455449353E+04   -0.73605E-05   -0.59702E-06  1534   0.618E-03    0.302E-02
RMM:  13    -0.125455449935E+04   -0.58164E-05   -0.47373E-06  1507   0.486E-03    0.286E-02
RMM:  14    -0.125455450301E+04   -0.36603E-05   -0.49690E-06  1487   0.511E-03    0.467E-02
RMM:  15    -0.125455449913E+04    0.38761E-05   -0.18418E-06  1366   0.337E-03    0.335E-02
RMM:  16    -0.125455450023E+04   -0.10938E-05   -0.86797E-07  1260   0.227E-03    0.133E-02
RMM:  17    -0.125455450451E+04   -0.42810E-05   -0.61443E-07  1198   0.190E-03    0.288E-02
RMM:  18    -0.125455450326E+04    0.12523E-05   -0.73723E-07  1196   0.213E-03    0.358E-02
RMM:  19    -0.125455450086E+04    0.23983E-05   -0.42215E-07  1128   0.176E-03    0.306E-02
RMM:  20    -0.125455450382E+04   -0.29595E-05   -0.24669E-07  1086   0.116E-03    0.736E-03
RMM:  21    -0.125455451065E+04   -0.68279E-05   -0.26097E-07  1077   0.113E-03    0.998E-03
RMM:  22    -0.125455451227E+04   -0.16243E-05   -0.22634E-07  1092   0.124E-03    0.160E-02
RMM:  23    -0.125455451200E+04    0.27373E-06   -0.11910E-07  1099   0.903E-04
 159 F= -.12631134E+04 E0= -.12630996E+04  d E =-.759020E-03  mag=    42.7984
       N       E                     dE             d eps       ncg     rms          rms(c)
DAV:   1    -0.125455397019E+04    0.54208E-03   -0.20046E-01  2116   0.857E-01    0.955E-02
RMM:   2    -0.125455441002E+04   -0.43983E-03   -0.39862E-03  2242   0.109E-01    0.370E-01
RMM:   3    -0.125455433709E+04    0.72935E-04   -0.45222E-04  2232   0.498E-02    0.440E-01
RMM:   4    -0.125455422352E+04    0.11356E-03   -0.26987E-04  2487   0.364E-02    0.156E-01
RMM:   5    -0.125455429474E+04   -0.71214E-04   -0.48991E-05  1994   0.148E-02    0.972E-02
RMM:   6    -0.125455435159E+04   -0.56850E-04   -0.24987E-05  1933   0.102E-02    0.704E-02
RMM:   7    -0.125455436385E+04   -0.12262E-04   -0.22180E-05  1899   0.102E-02    0.508E-02
RMM:   8    -0.125455438126E+04   -0.17412E-04   -0.18467E-05  1873   0.942E-03    0.119E-01
RMM:   9    -0.125455435802E+04    0.23244E-04   -0.11139E-05  1642   0.820E-03    0.129E-01
RMM:  10    -0.125455433963E+04    0.18389E-04   -0.41386E-06  1453   0.489E-03    0.880E-02
RMM:  11    -0.125455435254E+04   -0.12910E-04   -0.28429E-06  1415   0.390E-03    0.289E-02
RMM:  12    -0.125455437939E+04   -0.26853E-04   -0.28733E-06  1453   0.407E-03    0.360E-02
RMM:  13    -0.125455438777E+04   -0.83790E-05   -0.27480E-06  1415   0.441E-03    0.519E-02
RMM:  14    -0.125455438098E+04    0.67904E-05   -0.10437E-06  1231   0.296E-03    0.349E-02
RMM:  15    -0.125455438338E+04   -0.23989E-05   -0.35574E-07  1174   0.160E-03    0.753E-03
RMM:  16    -0.125455438992E+04   -0.65438E-05   -0.34404E-07  1119   0.138E-03    0.111E-02
RMM:  17    -0.125455439243E+04   -0.25039E-05   -0.23116E-07  1130   0.124E-03    0.148E-02
RMM:  18    -0.125455439218E+04    0.24229E-06   -0.10176E-07  1077   0.824E-04
 160 F= -.12631135E+04 E0= -.12630997E+04  d E =-.861848E-03  mag=    42.8005
       N       E                     dE             d eps       ncg     rms          rms(c)
DAV:   1    -0.125455291203E+04    0.14804E-02   -0.99984E-01  2104   0.190E+00    0.207E-01
RMM:   2    -0.125455492933E+04   -0.20173E-02   -0.19655E-02  2218   0.236E-01    0.574E-01
RMM:   3    -0.125455566003E+04   -0.73070E-03   -0.20342E-03  2205   0.109E-01    0.118E+00
RMM:   4    -0.125455412632E+04    0.15337E-02   -0.14081E-03  2556   0.822E-02    0.437E-01
RMM:   5    -0.125455454335E+04   -0.41703E-03   -0.31583E-04  2249   0.386E-02    0.226E-01
RMM:   6    -0.125455485892E+04   -0.31557E-03   -0.13017E-04  2299   0.236E-02    0.143E-01
RMM:   7    -0.125455494527E+04   -0.86350E-04   -0.10622E-04  2265   0.228E-02    0.121E-01
RMM:   8    -0.125455501853E+04   -0.73263E-04   -0.76661E-05  2209   0.183E-02    0.251E-01
RMM:   9    -0.125455493229E+04    0.86243E-04   -0.49414E-05  1965   0.162E-02    0.234E-01
RMM:  10    -0.125455488682E+04    0.45468E-04   -0.17033E-05  1732   0.883E-03    0.140E-01
RMM:  11    -0.125455493316E+04   -0.46339E-04   -0.94439E-06  1598   0.706E-03    0.589E-02
RMM:  12    -0.125455497848E+04   -0.45318E-04   -0.91388E-06  1622   0.752E-03    0.267E-02
RMM:  13    -0.125455500063E+04   -0.22152E-04   -0.67443E-06  1554   0.645E-03    0.369E-02
RMM:  14    -0.125455500018E+04    0.45047E-06   -0.38683E-06  1451   0.506E-03
 161 F= -.12631145E+04 E0= -.12631007E+04  d E =-.991554E-03  mag=    42.7988
       N       E                     dE             d eps       ncg     rms          rms(c)
DAV:   1    -0.125455405374E+04    0.94689E-03   -0.43162E-01  2132   0.125E+00    0.136E-01
RMM:   2    -0.125455485743E+04   -0.80369E-03   -0.84932E-03  2226   0.156E-01    0.181E-01
RMM:   3    -0.125455556151E+04   -0.70408E-03   -0.91903E-04  2206   0.755E-02    0.917E-01
RMM:   4    -0.125455429997E+04    0.12615E-02   -0.63738E-04  2567   0.536E-02    0.248E-01
RMM:   5    -0.125455477735E+04   -0.47737E-03   -0.24361E-04  2209   0.371E-02    0.104E-01
RMM:   6    -0.125455491409E+04   -0.13674E-03   -0.69839E-05  2186   0.170E-02    0.106E-01
RMM:   7    -0.125455492478E+04   -0.10695E-04   -0.43633E-05  2046   0.142E-02    0.683E-02
RMM:   8    -0.125455495908E+04   -0.34300E-04   -0.44304E-05  2058   0.137E-02    0.108E-01
RMM:   9    -0.125455493816E+04    0.20929E-04   -0.22705E-05  1826   0.107E-02    0.894E-02
RMM:  10    -0.125455493373E+04    0.44284E-05   -0.79536E-06  1545   0.620E-03    0.529E-02
RMM:  11    -0.125455494278E+04   -0.90574E-05   -0.32333E-06  1445   0.436E-03    0.175E-02
RMM:  12    -0.125455495409E+04   -0.11310E-04   -0.22578E-06  1357   0.364E-03    0.199E-02
RMM:  13    -0.125455495687E+04   -0.27740E-05   -0.25973E-06  1408   0.380E-03    0.150E-02
RMM:  14    -0.125455495887E+04   -0.20013E-05   -0.14114E-06  1328   0.292E-03    0.258E-02
RMM:  15    -0.125455495824E+04    0.62851E-06   -0.13635E-06  1343   0.278E-03
 162 F= -.12631147E+04 E0= -.12631009E+04  d E =-.119752E-02  mag=    42.7975
       N       E                     dE             d eps       ncg     rms          rms(c)
DAV:   1    -0.125455354369E+04    0.14152E-02   -0.95416E-01  2104   0.184E+00    0.197E-01
RMM:   2    -0.125455578945E+04   -0.22458E-02   -0.18792E-02  2212   0.229E-01    0.859E-01
RMM:   3    -0.125455502193E+04    0.76751E-03   -0.19101E-03  2205   0.106E-01    0.609E-01
RMM:   4    -0.125455537220E+04   -0.35026E-03   -0.97017E-04  2596   0.667E-02    0.285E-01
RMM:   5    -0.125455535424E+04    0.17957E-04   -0.20198E-04  2225   0.283E-02    0.180E-01
RMM:   6    -0.125455546824E+04   -0.11401E-03   -0.11504E-04  2241   0.208E-02    0.142E-01
RMM:   7    -0.125455547811E+04   -0.98700E-05   -0.10260E-04  2318   0.213E-02    0.909E-02
RMM:   8    -0.125455553567E+04   -0.57560E-04   -0.63683E-05  2168   0.159E-02    0.195E-01
RMM:   9    -0.125455548058E+04    0.55090E-04   -0.36943E-05  1911   0.140E-02    0.229E-01
RMM:  10    -0.125455542076E+04    0.59829E-04   -0.13080E-05  1733   0.728E-03    0.123E-01
RMM:  11    -0.125455546517E+04   -0.44411E-04   -0.10396E-05  1591   0.737E-03    0.448E-02
RMM:  12    -0.125455551342E+04   -0.48249E-04   -0.83351E-06  1630   0.723E-03    0.761E-02
RMM:  13    -0.125455551562E+04   -0.21996E-05   -0.61922E-06  1536   0.642E-03    0.680E-02
RMM:  14    -0.125455550762E+04    0.79929E-05   -0.15297E-06  1293   0.350E-03    0.501E-02
RMM:  15    -0.125455551161E+04   -0.39851E-05   -0.69886E-07  1220   0.224E-03    0.973E-03
RMM:  16    -0.125455552176E+04   -0.10153E-04   -0.71257E-07  1180   0.199E-03    0.136E-02
RMM:  17    -0.125455552377E+04   -0.20099E-05   -0.39480E-07  1158   0.160E-03    0.152E-02
RMM:  18    -0.125455552297E+04    0.80233E-06   -0.15130E-07  1091   0.107E-03
 163 F= -.12631157E+04 E0= -.12631019E+04  d E =-.100066E-02  mag=    42.7986
       N       E                     dE             d eps       ncg     rms          rms(c)
DAV:   1    -0.125455285279E+04    0.26710E-02   -0.12544E+00  2104   0.211E+00    0.225E-01
RMM:   2    -0.125455559434E+04   -0.27415E-02   -0.24692E-02  2213   0.262E-01    0.816E-01
RMM:   3    -0.125455535108E+04    0.24326E-03   -0.24301E-03  2200   0.119E-01    0.937E-01
RMM:   4    -0.125455498076E+04    0.37032E-03   -0.13892E-03  2585   0.810E-02    0.373E-01
RMM:   5    -0.125455514451E+04   -0.16375E-03   -0.28811E-04  2260   0.352E-02    0.219E-01
RMM:   6    -0.125455535858E+04   -0.21407E-03   -0.15965E-04  2297   0.252E-02    0.168E-01
RMM:   7    -0.125455538429E+04   -0.25709E-04   -0.13631E-04  2360   0.247E-02    0.113E-01
RMM:   8    -0.125455545849E+04   -0.74206E-04   -0.86297E-05  2253   0.186E-02    0.241E-01
RMM:   9    -0.125455538769E+04    0.70799E-04   -0.51867E-05  1965   0.164E-02    0.285E-01
RMM:  10    -0.125455530132E+04    0.86368E-04   -0.20297E-05  1846   0.916E-03    0.160E-01
RMM:  11    -0.125455535965E+04   -0.58326E-04   -0.14039E-05  1639   0.855E-03    0.591E-02
RMM:  12    -0.125455542792E+04   -0.68273E-04   -0.10593E-05  1679   0.805E-03    0.697E-02
RMM:  13    -0.125455544553E+04   -0.17605E-04   -0.97040E-06  1646   0.799E-03    0.781E-02
RMM:  14    -0.125455543257E+04    0.12955E-04   -0.29668E-06  1420   0.454E-03    0.387E-02
RMM:  15    -0.125455544158E+04   -0.90077E-05   -0.13481E-06  1305   0.307E-03    0.120E-02
RMM:  16    -0.125455545082E+04   -0.92383E-05   -0.86688E-07  1243   0.226E-03    0.243E-02
RMM:  17    -0.125455545226E+04   -0.14437E-05   -0.63727E-07  1210   0.199E-03    0.204E-02
