  158  158 1000    2
  0.1968017E+02  0.2396924E-08  0.2398661E-08  0.6801602E-09  0.5000000E-15
  1.000000000000000E-004
  CAR 
 Co–organic framework                  
    773      1    498
