  158  158 1000    2
  0.2467639E+02  0.2587352E-08  0.2627587E-08  0.6751274E-09  0.5000000E-15
  1.000000000000000E-004
  CAR 
 Co–organic framework                  
    773      1    498
