 running on   24 total cores
 distrk:  each k-point on   24 cores,    1 groups
 distr:  one band on    4 cores,    6 groups
 using from now: INCAR     
 vasp.5.4.4.18Apr17-6-g9f103f2a35 (build May 21 2019 18:55:53) complex          
  
 POSCAR found type information on POSCAR  O  C  H  Co Li
 POSCAR found :  5 types and     158 ions
 LDA part: xc-table for Pade appr. of Perdew
 POSCAR found type information on POSCAR  O  C  H  Co Li
 POSCAR found :  5 types and     158 ions
 POSCAR, INCAR and KPOINTS ok, starting setup
 FFT: planning ...
 WAVECAR not read
 WARNING: random wavefunctions but no delay for mixing, default for NELMDL
 entering main loop
       N       E                     dE             d eps       ncg     rms          rms(c)
DAV:   1     0.830469320882E+04    0.83047E+04   -0.33414E+05  1992   0.137E+03
DAV:   2     0.746550776214E+03   -0.75581E+04   -0.68418E+04  2256   0.428E+02
DAV:   3    -0.118373008581E+04   -0.19303E+04   -0.18285E+04  3348   0.211E+02
DAV:   4    -0.133089664136E+04   -0.14717E+03   -0.13797E+03  3120   0.664E+01
DAV:   5    -0.133840561477E+04   -0.75090E+01   -0.70078E+01  3312   0.142E+01    0.154E+02
RMM:   6    -0.184433778296E+04   -0.50593E+03   -0.33251E+03  2608   0.136E+02    0.515E+02
RMM:   7    -0.162943614766E+04    0.21490E+03   -0.23943E+02  2003   0.453E+01    0.319E+02
RMM:   8    -0.118838206115E+04    0.44105E+03   -0.51806E+02  2138   0.482E+01    0.120E+02
RMM:   9    -0.129183270719E+04   -0.10345E+03   -0.17089E+02  2143   0.277E+01    0.160E+02
RMM:  10    -0.135737411945E+04   -0.65541E+02   -0.47434E+01  2261   0.133E+01    0.152E+02
RMM:  11    -0.127918463742E+04    0.78189E+02   -0.54274E+01  2100   0.152E+01    0.145E+02
RMM:  12    -0.130465385246E+04   -0.25469E+02   -0.69789E+01  2036   0.179E+01    0.142E+02
RMM:  13    -0.120987955508E+04    0.94774E+02   -0.76716E+01  2010   0.196E+01    0.126E+02
RMM:  14    -0.120033922207E+04    0.95403E+01   -0.61683E+01  2033   0.178E+01    0.128E+02
RMM:  15    -0.118114666015E+04    0.19193E+02   -0.47579E+01  2025   0.161E+01    0.121E+02
RMM:  16    -0.111903903326E+04    0.62108E+02   -0.29756E+01  2115   0.120E+01    0.824E+01
RMM:  17    -0.111651338605E+04    0.25256E+01   -0.18334E+01  2136   0.868E+00    0.824E+01
RMM:  18    -0.111644196947E+04    0.71417E-01   -0.14569E+01  2124   0.798E+00    0.877E+01
RMM:  19    -0.110565865043E+04    0.10783E+02   -0.11986E+01  2088   0.764E+00    0.601E+01
RMM:  20    -0.111803071758E+04   -0.12372E+02   -0.58746E+00  2077   0.514E+00    0.752E+01
RMM:  21    -0.110187428909E+04    0.16156E+02   -0.45306E+00  2104   0.459E+00    0.478E+01
RMM:  22    -0.110400124538E+04   -0.21270E+01   -0.25873E+00  2097   0.313E+00    0.506E+01
RMM:  23    -0.110468879610E+04   -0.68755E+00   -0.99480E-01  2195   0.192E+00    0.384E+01
RMM:  24    -0.110659217527E+04   -0.19034E+01   -0.56142E-01  2167   0.141E+00    0.419E+01
RMM:  25    -0.110827978453E+04   -0.16876E+01   -0.60023E-01  2119   0.152E+00    0.413E+01
RMM:  26    -0.111022658178E+04   -0.19468E+01   -0.10099E+00  2074   0.194E+00    0.474E+01
RMM:  27    -0.111000229281E+04    0.22429E+00   -0.62192E-01  2075   0.159E+00    0.394E+01
RMM:  28    -0.111302979552E+04   -0.30275E+01   -0.91063E-01  2111   0.181E+00    0.473E+01
RMM:  29    -0.111176058256E+04    0.12692E+01   -0.54370E-01  2106   0.150E+00    0.385E+01
RMM:  30    -0.111274496137E+04   -0.98438E+00   -0.47424E-01  2119   0.135E+00    0.450E+01
RMM:  31    -0.111294403693E+04   -0.19908E+00   -0.16158E-01  2067   0.930E-01    0.438E+01
RMM:  32    -0.111290992816E+04    0.34109E-01   -0.11171E-01  2209   0.617E-01    0.431E+01
RMM:  33    -0.111427099843E+04   -0.13611E+01   -0.42114E-01  2102   0.124E+00    0.388E+01
RMM:  34    -0.111441770008E+04   -0.14670E+00   -0.12818E-01  2110   0.751E-01    0.388E+01
RMM:  35    -0.111526591680E+04   -0.84822E+00   -0.20970E-01  2104   0.883E-01    0.385E+01
RMM:  36    -0.111553657870E+04   -0.27066E+00   -0.10635E-01  2088   0.687E-01    0.397E+01
RMM:  37    -0.111556224167E+04   -0.25663E-01   -0.36621E-02  2248   0.385E-01    0.400E+01
RMM:  38    -0.111571283544E+04   -0.15059E+00   -0.17802E-02  2279   0.237E-01    0.402E+01
RMM:  39    -0.111632299323E+04   -0.61016E+00   -0.19637E-01  2097   0.828E-01    0.409E+01
RMM:  40    -0.111971428277E+04   -0.33913E+01   -0.12023E+00  2073   0.194E+00    0.423E+01
RMM:  41    -0.112074871751E+04   -0.10344E+01   -0.37840E-01  2125   0.127E+00    0.394E+01
RMM:  42    -0.112196326244E+04   -0.12145E+01   -0.28379E-01  2142   0.938E-01    0.407E+01
RMM:  43    -0.112609529620E+04   -0.41320E+01   -0.19123E+00  2035   0.256E+00    0.457E+01
RMM:  44    -0.112667578848E+04   -0.58049E+00   -0.26482E+00  2129   0.324E+00    0.387E+01
RMM:  45    -0.113012466405E+04   -0.34489E+01   -0.16617E+00  2036   0.233E+00    0.354E+01
RMM:  46    -0.113203711308E+04   -0.19124E+01   -0.20297E+00  2149   0.246E+00    0.383E+01
RMM:  47    -0.113139888590E+04    0.63823E+00   -0.34762E-01  2262   0.112E+00    0.356E+01
RMM:  48    -0.113153189097E+04   -0.13301E+00   -0.10922E-01  2445   0.484E-01    0.364E+01
RMM:  49    -0.113151289203E+04    0.18999E-01   -0.20584E-02  2251   0.255E-01    0.360E+01
RMM:  50    -0.113150600844E+04    0.68836E-02   -0.62490E-03  2407   0.122E-01    0.360E+01
RMM:  51    -0.113323737268E+04   -0.17314E+01   -0.10306E+00  2072   0.209E+00    0.338E+01
RMM:  52    -0.113545447371E+04   -0.22171E+01   -0.85759E-01  2082   0.173E+00    0.367E+01
RMM:  53    -0.113796309853E+04   -0.25086E+01   -0.71425E-01  2084   0.150E+00    0.372E+01
RMM:  54    -0.113850842305E+04   -0.54532E+00   -0.26308E-01  2340   0.908E-01    0.356E+01
RMM:  55    -0.113975944990E+04   -0.12510E+01   -0.32587E-01  2085   0.101E+00    0.351E+01
RMM:  56    -0.113974807766E+04    0.11372E-01   -0.13301E+00  2129   0.201E+00    0.379E+01
RMM:  57    -0.114080317209E+04   -0.10551E+01   -0.54758E-01  2074   0.146E+00    0.348E+01
RMM:  58    -0.114138265481E+04   -0.57948E+00   -0.27198E-01  2276   0.884E-01    0.327E+01
RMM:  59    -0.114238784084E+04   -0.10052E+01   -0.34900E-01  2120   0.102E+00    0.314E+01
RMM:  60    -0.114250194837E+04   -0.11411E+00   -0.13878E-01  2200   0.699E-01    0.287E+01
RMM:  61    -0.114279869864E+04   -0.29675E+00   -0.14378E+00  2143   0.223E+00    0.368E+01
RMM:  62    -0.114195336498E+04    0.84533E+00   -0.46463E-01  2074   0.152E+00    0.313E+01
RMM:  63    -0.114166456620E+04    0.28880E+00   -0.16611E-01  2281   0.749E-01    0.286E+01
RMM:  64    -0.114144628013E+04    0.21829E+00   -0.98078E-02  2151   0.604E-01    0.278E+01
RMM:  65    -0.114101114585E+04    0.43513E+00   -0.15088E-01  2148   0.703E-01    0.218E+01
RMM:  66    -0.115035474622E+04   -0.93436E+01   -0.24747E+00  2105   0.293E+00    0.553E+01
RMM:  67    -0.114304307896E+04    0.73117E+01   -0.14014E+00  2041   0.254E+00    0.359E+01
RMM:  68    -0.114276566854E+04    0.27741E+00   -0.28823E-01  2140   0.110E+00    0.305E+01
RMM:  69    -0.114316051924E+04   -0.39485E+00   -0.93734E-02  2155   0.665E-01    0.300E+01
RMM:  70    -0.114319793761E+04   -0.37418E-01   -0.23825E-02  2390   0.267E-01    0.294E+01
RMM:  71    -0.114469630531E+04   -0.14984E+01   -0.63348E-01  2033   0.151E+00    0.298E+01
RMM:  72    -0.114480937814E+04   -0.11307E+00   -0.26028E-01  2091   0.115E+00    0.292E+01
RMM:  73    -0.114467597921E+04    0.13340E+00   -0.26996E-01  2150   0.977E-01    0.297E+01
RMM:  74    -0.114446200674E+04    0.21397E+00   -0.26076E-01  2143   0.955E-01    0.279E+01
RMM:  75    -0.114456687674E+04   -0.10487E+00   -0.24491E-01  2161   0.883E-01    0.275E+01
RMM:  76    -0.114536165780E+04   -0.79478E+00   -0.74047E-01  2110   0.177E+00    0.248E+01
RMM:  77    -0.114506327071E+04    0.29839E+00   -0.26123E-01  2079   0.113E+00    0.238E+01
RMM:  78    -0.114507998904E+04   -0.16718E-01   -0.96820E-02  2200   0.600E-01    0.226E+01
RMM:  79    -0.114526200024E+04   -0.18201E+00   -0.11258E-01  2082   0.638E-01    0.193E+01
RMM:  80    -0.114600509289E+04   -0.74309E+00   -0.17322E-01  2104   0.779E-01    0.183E+01
RMM:  81    -0.114642806391E+04   -0.42297E+00   -0.22545E-01  2102   0.928E-01    0.184E+01
RMM:  82    -0.114659926756E+04   -0.17120E+00   -0.12552E-01  2150   0.737E-01    0.159E+01
RMM:  83    -0.114752216029E+04   -0.92289E+00   -0.18068E-01  2033   0.778E-01    0.147E+01
RMM:  84    -0.114816308837E+04   -0.64093E+00   -0.10615E-01  2215   0.574E-01    0.148E+01
RMM:  85    -0.114919457833E+04   -0.10315E+01   -0.19235E-01  2037   0.739E-01    0.152E+01
RMM:  86    -0.115101108056E+04   -0.18165E+01   -0.76975E-01  2205   0.161E+00    0.243E+01
RMM:  87    -0.115050744816E+04    0.50363E+00   -0.38490E-01  2116   0.130E+00    0.173E+01
RMM:  88    -0.115050378999E+04    0.36582E-02   -0.12851E-01  2099   0.734E-01    0.171E+01
RMM:  89    -0.115063418812E+04   -0.13040E+00   -0.29730E-02  2266   0.326E-01    0.176E+01
RMM:  90    -0.115076621823E+04   -0.13203E+00   -0.16360E-02  2294   0.223E-01    0.164E+01
RMM:  91    -0.115018276848E+04    0.58345E+00   -0.12373E+00  2016   0.207E+00    0.249E+01
RMM:  92    -0.115024318713E+04   -0.60419E-01   -0.48637E-01  2042   0.155E+00    0.166E+01
RMM:  93    -0.115113854858E+04   -0.89536E+00   -0.15960E-01  2070   0.827E-01    0.140E+01
RMM:  94    -0.115201503258E+04   -0.87648E+00   -0.12537E-01  2157   0.648E-01    0.138E+01
RMM:  95    -0.115260634834E+04   -0.59132E+00   -0.93497E-02  2239   0.530E-01    0.135E+01
RMM:  96    -0.115364849398E+04   -0.10421E+01   -0.45701E-01  2085   0.127E+00    0.113E+01
RMM:  97    -0.115315913805E+04    0.48936E+00   -0.16215E-01  2065   0.860E-01    0.920E+00
RMM:  98    -0.115329621569E+04   -0.13708E+00   -0.78782E-02  2236   0.535E-01    0.817E+00
RMM:  99    -0.115372508153E+04   -0.42887E+00   -0.62268E-02  2199   0.422E-01    0.799E+00
RMM: 100    -0.115411871139E+04   -0.39363E+00   -0.50875E-02  2255   0.393E-01    0.780E+00
RMM: 101    -0.115438593903E+04   -0.26723E+00   -0.82296E-02  2180   0.519E-01    0.796E+00
RMM: 102    -0.115464075794E+04   -0.25482E+00   -0.50850E-02  2205   0.393E-01    0.665E+00
RMM: 103    -0.115470122406E+04   -0.60466E-01   -0.21518E-02  2259   0.295E-01    0.633E+00
RMM: 104    -0.115485633359E+04   -0.15511E+00   -0.21862E-02  2200   0.273E-01    0.579E+00
RMM: 105    -0.115500527627E+04   -0.14894E+00   -0.16728E-02  2385   0.221E-01    0.551E+00
RMM: 106    -0.115540738154E+04   -0.40211E+00   -0.74005E-02  2049   0.539E-01    0.732E+00
RMM: 107    -0.115516413954E+04    0.24324E+00   -0.31020E-02  2081   0.369E-01    0.447E+00
RMM: 108    -0.115519173765E+04   -0.27598E-01   -0.20370E-02  2233   0.297E-01    0.436E+00
RMM: 109    -0.115526594932E+04   -0.74212E-01   -0.19819E-02  2304   0.250E-01    0.382E+00
RMM: 110    -0.115544968518E+04   -0.18374E+00   -0.15138E-02  2408   0.193E-01    0.448E+00
RMM: 111    -0.115509163655E+04    0.35805E+00   -0.51777E-02  2031   0.420E-01    0.618E+00
RMM: 112    -0.115519886328E+04   -0.10723E+00   -0.18677E-02  2062   0.306E-01    0.489E+00
RMM: 113    -0.115539399179E+04   -0.19513E+00   -0.19133E-02  2112   0.241E-01    0.336E+00
RMM: 114    -0.115550308468E+04   -0.10909E+00   -0.15123E-02  2266   0.221E-01    0.301E+00
RMM: 115    -0.115564440308E+04   -0.14132E+00   -0.16305E-02  2239   0.219E-01    0.272E+00
RMM: 116    -0.115588066348E+04   -0.23626E+00   -0.24605E-02  2199   0.259E-01    0.257E+00
RMM: 117    -0.115592114996E+04   -0.40486E-01   -0.55296E-03  2410   0.124E-01    0.241E+00
RMM: 118    -0.115601723410E+04   -0.96084E-01   -0.48886E-03  2286   0.935E-02    0.226E+00
RMM: 119    -0.115613554379E+04   -0.11831E+00   -0.69062E-03  2252   0.122E-01    0.196E+00
RMM: 120    -0.115621556553E+04   -0.80022E-01   -0.56511E-03  2496   0.981E-02
   1 F= -.11645697E+04 E0= -.11645645E+04  d E =-.116457E+04  mag=    15.2052
 curvature:   0.00 expect dE= 0.000E+00 dE for cont linesearch  0.000E+00
 trial: gam= 0.00000 g(F)=  0.275E+00 g(S)=  0.660E-02 ort = 0.000E+00 (trialstep = 0.100E+01)
 search vector abs. value=  0.282E+00
 bond charge predicted
       N       E                     dE             d eps       ncg     rms          rms(c)
DAV:   1    -0.115602120083E+04    0.11434E+00   -0.92699E+01  2124   0.171E+01    0.429E+00
RMM:   2    -0.115747681370E+04   -0.14556E+01   -0.22864E+00  2133   0.336E+00    0.300E+01
RMM:   3    -0.115626780493E+04    0.12090E+01   -0.73394E-01  2395   0.172E+00    0.417E+00
RMM:   4    -0.115649151804E+04   -0.22371E+00   -0.33602E-01  2251   0.127E+00    0.731E+00
RMM:   5    -0.115637015684E+04    0.12136E+00   -0.12114E-01  2224   0.772E-01    0.368E+00
RMM:   6    -0.115639331942E+04   -0.23163E-01   -0.59571E-02  2243   0.458E-01    0.460E+00
RMM:   7    -0.115635341389E+04    0.39906E-01   -0.43584E-02  2253   0.395E-01    0.287E+00
RMM:   8    -0.115634763438E+04    0.57795E-02   -0.33353E-02  2234   0.379E-01    0.210E+00
RMM:   9    -0.115635014444E+04   -0.25101E-02   -0.21013E-02  2222   0.314E-01    0.176E+00
RMM:  10    -0.115634997981E+04    0.16463E-03   -0.13636E-02  2223   0.239E-01    0.182E+00
RMM:  11    -0.115634975130E+04    0.22852E-03   -0.59256E-03  2273   0.150E-01    0.136E+00
RMM:  12    -0.115634996447E+04   -0.21317E-03   -0.21675E-03  2157   0.101E-01    0.127E+00
RMM:  13    -0.115635011352E+04   -0.14905E-03   -0.48716E-04  2388   0.351E-02    0.126E+00
RMM:  14    -0.115635302998E+04   -0.29165E-02   -0.23372E-03  2150   0.921E-02    0.128E+00
RMM:  15    -0.115635718280E+04   -0.41528E-02   -0.47798E-03  2120   0.143E-01    0.117E+00
RMM:  16    -0.115636160230E+04   -0.44195E-02   -0.29153E-03  2134   0.123E-01    0.149E+00
RMM:  17    -0.115635959672E+04    0.20056E-02   -0.13058E-03  2186   0.732E-02    0.104E+00
RMM:  18    -0.115636106464E+04   -0.14679E-02   -0.11250E-03  2175   0.690E-02    0.683E-01
RMM:  19    -0.115636383185E+04   -0.27672E-02   -0.82412E-04  2220   0.594E-02    0.339E-01
RMM:  20    -0.115636644231E+04   -0.26105E-02   -0.66073E-04  2159   0.543E-02    0.392E-01
RMM:  21    -0.115636768408E+04   -0.12418E-02   -0.31933E-04  2134   0.389E-02    0.330E-01
RMM:  22    -0.115636863523E+04   -0.95115E-03   -0.13661E-04  2134   0.234E-02    0.252E-01
RMM:  23    -0.115636948111E+04   -0.84589E-03   -0.85215E-05  2030   0.183E-02    0.141E-01
RMM:  24    -0.115637125185E+04   -0.17707E-02   -0.11897E-04  2033   0.217E-02    0.220E-01
RMM:  25    -0.115637341739E+04   -0.21655E-02   -0.10316E-04  2077   0.186E-02    0.137E-01
RMM:  26    -0.115637540857E+04   -0.19912E-02   -0.84203E-05  2103   0.147E-02    0.618E-02
RMM:  27    -0.115637665629E+04   -0.12477E-02   -0.44744E-05  2033   0.108E-02    0.499E-02
RMM:  28    -0.115637780457E+04   -0.11483E-02   -0.30502E-05  1973   0.777E-03    0.381E-02
RMM:  29    -0.115637935798E+04   -0.15534E-02   -0.38763E-05  2020   0.822E-03    0.565E-02
RMM:  30    -0.115638079101E+04   -0.14330E-02   -0.38469E-05  2019   0.769E-03    0.863E-02
RMM:  31    -0.115638221645E+04   -0.14254E-02   -0.43424E-05  2033   0.711E-03    0.453E-02
RMM:  32    -0.115638327342E+04   -0.10570E-02   -0.32143E-05  1976   0.627E-03    0.303E-02
RMM:  33    -0.115638378879E+04   -0.51537E-03   -0.14654E-05  1769   0.523E-03    0.334E-02
RMM:  34    -0.115638444722E+04   -0.65843E-03   -0.18854E-05  1812   0.463E-03    0.170E-02
RMM:  35    -0.115638513383E+04   -0.68661E-03   -0.24907E-05  1896   0.452E-03    0.998E-03
RMM:  36    -0.115638547526E+04   -0.34143E-03   -0.13223E-05  1713   0.359E-03    0.142E-02
RMM:  37    -0.115638571338E+04   -0.23812E-03   -0.11457E-05  1673   0.331E-03    0.224E-02
RMM:  38    -0.115638584603E+04   -0.13265E-03   -0.77823E-06  1596   0.312E-03    0.429E-03
RMM:  39    -0.115638590215E+04   -0.56116E-04   -0.40719E-06  1423   0.241E-03    0.350E-03
RMM:  40    -0.115638592394E+04   -0.21792E-04   -0.17753E-06  1265   0.186E-03    0.408E-03
RMM:  41    -0.115638594067E+04   -0.16735E-04   -0.11612E-06  1169   0.136E-03    0.289E-03
RMM:  42    -0.115638595241E+04   -0.11740E-04   -0.81403E-07  1120   0.116E-03    0.159E-03
RMM:  43    -0.115638595716E+04   -0.47478E-05   -0.47228E-07  1036   0.965E-04    0.113E-03
RMM:  44    -0.115638596337E+04   -0.62079E-05   -0.41639E-07  1040   0.810E-04    0.658E-04
RMM:  45    -0.115638596988E+04   -0.65085E-05   -0.42204E-07  1031   0.806E-04    0.477E-04
RMM:  46    -0.115638597228E+04   -0.24043E-05   -0.30779E-07   959   0.732E-04    0.474E-04
RMM:  47    -0.115638597388E+04   -0.15935E-05   -0.23534E-07   903   0.618E-04    0.472E-04
RMM:  48    -0.115638597565E+04   -0.17700E-05   -0.21400E-07   928   0.592E-04    0.211E-04
RMM:  49    -0.115638597651E+04   -0.86130E-06   -0.17015E-07   883   0.552E-04
   2 F= -.11647429E+04 E0= -.11647322E+04  d E =-.173130E+00  mag=    14.7648
 trial-energy change:   -0.173130  1 .order    0.037386   -0.281762    0.356534
 step:   0.7805(harm=  0.4414)  dis= 0.02778  next Energy= -1164.779764 (dE=-0.210E+00)
 bond charge predicted
       N       E                     dE             d eps       ncg     rms          rms(c)
DAV:   1    -0.115643705486E+04   -0.51079E-01   -0.44595E+00  2088   0.374E+00    0.888E-01
RMM:   2    -0.115645077792E+04   -0.13723E-01   -0.86179E-02  2197   0.651E-01    0.142E+00
RMM:   3    -0.115650553280E+04   -0.54755E-01   -0.31100E-02  2387   0.340E-01    0.950E+00
RMM:   4    -0.115643066114E+04    0.74872E-01   -0.34365E-02  2211   0.367E-01    0.232E+00
RMM:   5    -0.115644193443E+04   -0.11273E-01   -0.13368E-02  2155   0.260E-01    0.977E-01
RMM:   6    -0.115644966795E+04   -0.77335E-02   -0.41655E-03  2216   0.137E-01    0.929E-01
RMM:   7    -0.115645130300E+04   -0.16351E-02   -0.25060E-03  2235   0.107E-01    0.109E+00
RMM:   8    -0.115644962440E+04    0.16786E-02   -0.14387E-03  2280   0.777E-02    0.845E-01
RMM:   9    -0.115644971335E+04   -0.88951E-04   -0.11741E-03  2202   0.620E-02    0.689E-01
RMM:  10    -0.115644958913E+04    0.12422E-03   -0.80871E-04  2189   0.590E-02    0.368E-01
RMM:  11    -0.115644959802E+04   -0.88812E-05   -0.49975E-04  2149   0.497E-02    0.227E-01
RMM:  12    -0.115644962242E+04   -0.24401E-04   -0.23581E-04  2116   0.320E-02    0.257E-01
RMM:  13    -0.115644957869E+04    0.43725E-04   -0.13653E-04  2029   0.252E-02    0.243E-01
RMM:  14    -0.115644953935E+04    0.39342E-04   -0.88902E-05  1952   0.201E-02    0.185E-01
RMM:  15    -0.115644954468E+04   -0.53308E-05   -0.69815E-05  1843   0.179E-02    0.127E-01
RMM:  16    -0.115644957118E+04   -0.26500E-04   -0.36489E-05  1744   0.136E-02    0.495E-02
RMM:  17    -0.115644961816E+04   -0.46976E-04   -0.16042E-05  1573   0.938E-03    0.336E-02
RMM:  18    -0.115644963357E+04   -0.15418E-04   -0.77648E-06  1472   0.662E-03    0.368E-02
RMM:  19    -0.115644963874E+04   -0.51630E-05   -0.47265E-06  1394   0.498E-03    0.295E-02
RMM:  20    -0.115644965005E+04   -0.11309E-04   -0.26761E-06  1350   0.386E-03    0.365E-02
RMM:  21    -0.115644966405E+04   -0.14003E-04   -0.24957E-06  1325   0.355E-03    0.378E-02
RMM:  22    -0.115644967653E+04   -0.12480E-04   -0.21806E-06  1273   0.333E-03    0.269E-02
RMM:  23    -0.115644969375E+04   -0.17223E-04   -0.14468E-06  1251   0.270E-03    0.154E-02
RMM:  24    -0.115644970742E+04   -0.13666E-04   -0.11870E-06  1224   0.241E-03    0.717E-03
RMM:  25    -0.115644971985E+04   -0.12435E-04   -0.86847E-07  1190   0.197E-03    0.150E-02
RMM:  26    -0.115644973071E+04   -0.10853E-04   -0.57985E-07  1152   0.157E-03    0.152E-02
RMM:  27    -0.115644974664E+04   -0.15938E-04   -0.60131E-07  1152   0.127E-03    0.577E-03
RMM:  28    -0.115644976116E+04   -0.14516E-04   -0.57997E-07  1110   0.125E-03    0.465E-03
RMM:  29    -0.115644976901E+04   -0.78478E-05   -0.45383E-07  1062   0.115E-03    0.584E-03
RMM:  30    -0.115644977729E+04   -0.82865E-05   -0.39990E-07  1069   0.935E-04    0.318E-03
RMM:  31    -0.115644978858E+04   -0.11287E-04   -0.50100E-07  1104   0.927E-04    0.197E-03
RMM:  32    -0.115644979464E+04   -0.60606E-05   -0.40968E-07  1034   0.887E-04    0.159E-03
RMM:  33    -0.115644979868E+04   -0.40354E-05   -0.34787E-07   998   0.785E-04    0.855E-04
RMM:  34    -0.115644980143E+04   -0.27498E-05   -0.27588E-07   957   0.746E-04    0.103E-03
RMM:  35    -0.115644980414E+04   -0.27126E-05   -0.25492E-07   954   0.645E-04    0.455E-04
RMM:  36    -0.115644980603E+04   -0.18922E-05   -0.21500E-07   967   0.645E-04    0.312E-04
RMM:  37    -0.115644980706E+04   -0.10248E-05   -0.17002E-07   894   0.548E-04    0.260E-04
RMM:  38    -0.115644980776E+04   -0.70153E-06   -0.13278E-07   862   0.519E-04
   3 F= -.11648062E+04 E0= -.11647954E+04  d E =-.236488E+00  mag=    14.7575
 curvature:  -0.14 expect dE=-0.235E+00 dE for cont linesearch -0.240E-01
 ZBRENT: interpolating
 opt :   0.4380  next Energy= -1164.843935 (dE=-0.274E+00)
 bond charge predicted
       N       E                     dE             d eps       ncg     rms          rms(c)
DAV:   1    -0.115645764156E+04   -0.78345E-02   -0.10859E+01  2010   0.586E+00    0.139E+00
RMM:   2    -0.115649282084E+04   -0.35179E-01   -0.21750E-01  2192   0.103E+00    0.212E+00
RMM:   3    -0.115663097268E+04   -0.13815E+00   -0.77110E-02  2366   0.543E-01    0.155E+01
RMM:   4    -0.115644832508E+04    0.18265E+00   -0.69118E-02  2227   0.533E-01    0.259E+00
RMM:   5    -0.115648489541E+04   -0.36570E-01   -0.36578E-02  2129   0.446E-01    0.153E+00
RMM:   6    -0.115649634685E+04   -0.11451E-01   -0.11212E-02  2250   0.214E-01    0.196E+00
RMM:   7    -0.115649274722E+04    0.35996E-02   -0.59870E-03  2260   0.147E-01    0.170E+00
RMM:   8    -0.115648877625E+04    0.39710E-02   -0.37133E-03  2272   0.127E-01    0.104E+00
RMM:   9    -0.115648947361E+04   -0.69736E-03   -0.32642E-03  2217   0.120E-01    0.866E-01
RMM:  10    -0.115648905028E+04    0.42333E-03   -0.18720E-03  2190   0.931E-02    0.585E-01
RMM:  11    -0.115648909093E+04   -0.40656E-04   -0.74761E-04  2152   0.597E-02    0.653E-01
RMM:  12    -0.115648914724E+04   -0.56311E-04   -0.34325E-04  2166   0.375E-02    0.877E-01
RMM:  13    -0.115648894891E+04    0.19833E-03   -0.13358E-04  1925   0.251E-02    0.967E-01
RMM:  14    -0.115648839647E+04    0.55244E-03   -0.65272E-05  1855   0.136E-02    0.776E-01
RMM:  15    -0.115648842139E+04   -0.24916E-04   -0.58981E-04  2081   0.492E-02    0.324E-01
RMM:  16    -0.115648893334E+04   -0.51195E-03   -0.50390E-04  2117   0.508E-02    0.407E-01
RMM:  17    -0.115648894626E+04   -0.12918E-04   -0.26242E-04  2071   0.343E-02    0.432E-01
RMM:  18    -0.115648879188E+04    0.15438E-03   -0.11960E-04  2029   0.214E-02    0.368E-01
RMM:  19    -0.115648873756E+04    0.54318E-04   -0.78417E-05  1969   0.187E-02    0.211E-01
RMM:  20    -0.115648882606E+04   -0.88499E-04   -0.45552E-05  1840   0.147E-02    0.699E-02
RMM:  21    -0.115648890786E+04   -0.81792E-04   -0.33841E-05  1734   0.132E-02    0.920E-02
RMM:  22    -0.115648891539E+04   -0.75315E-05   -0.15509E-05  1576   0.908E-03    0.987E-02
RMM:  23    -0.115648891867E+04   -0.32851E-05   -0.74512E-06  1470   0.615E-03    0.456E-02
RMM:  24    -0.115648896017E+04   -0.41497E-04   -0.72070E-06  1486   0.585E-03    0.368E-02
RMM:  25    -0.115648900095E+04   -0.40783E-04   -0.52503E-06  1434   0.503E-03    0.220E-02
RMM:  26    -0.115648904652E+04   -0.45568E-04   -0.31223E-06  1368   0.363E-03    0.188E-02
RMM:  27    -0.115648907266E+04   -0.26138E-04   -0.17187E-06  1271   0.286E-03    0.164E-02
RMM:  28    -0.115648909348E+04   -0.20825E-04   -0.12132E-06  1218   0.223E-03    0.148E-02
RMM:  29    -0.115648911758E+04   -0.24101E-04   -0.10807E-06  1197   0.209E-03    0.116E-02
RMM:  30    -0.115648915091E+04   -0.33325E-04   -0.13790E-06  1230   0.184E-03    0.715E-03
RMM:  31    -0.115648917443E+04   -0.23524E-04   -0.98919E-07  1164   0.172E-03    0.609E-03
RMM:  32    -0.115648919938E+04   -0.24944E-04   -0.11989E-06  1201   0.151E-03    0.530E-03
RMM:  33    -0.115648921637E+04   -0.16995E-04   -0.92419E-07  1141   0.149E-03    0.393E-03
RMM:  34    -0.115648922980E+04   -0.13424E-04   -0.80771E-07  1111   0.124E-03    0.316E-03
RMM:  35    -0.115648924239E+04   -0.12597E-04   -0.76279E-07  1118   0.120E-03    0.122E-03
RMM:  36    -0.115648925109E+04   -0.86980E-05   -0.67713E-07  1101   0.106E-03    0.128E-03
RMM:  37    -0.115648925809E+04   -0.69962E-05   -0.60989E-07  1054   0.999E-04    0.123E-03
RMM:  38    -0.115648926155E+04   -0.34640E-05   -0.45641E-07  1001   0.888E-04    0.113E-03
RMM:  39    -0.115648926401E+04   -0.24552E-05   -0.35364E-07   959   0.768E-04    0.862E-04
RMM:  40    -0.115648926614E+04   -0.21381E-05   -0.29907E-07   963   0.715E-04    0.777E-04
RMM:  41    -0.115648926709E+04   -0.95029E-06   -0.21839E-07   897   0.638E-04
   4 F= -.11648448E+04 E0= -.11648339E+04  d E =-.275060E+00  mag=    14.7455
 curvature:  -0.22 expect dE=-0.109E+00 dE for cont linesearch -0.126E-04
 trial: gam= 1.77923 g(F)=  0.492E+00 g(S)=  0.551E-02 ort =-0.402E-02 (trialstep = 0.182E+00)
 search vector abs. value=  0.137E+01
 bond charge predicted
       N       E                     dE             d eps       ncg     rms          rms(c)
DAV:   1    -0.115649285920E+04   -0.35931E-02   -0.16138E+01  2004   0.663E+00    0.174E+00
RMM:   2    -0.115654266264E+04   -0.49803E-01   -0.27586E-01  2106   0.113E+00    0.449E+00
RMM:   3    -0.115657680577E+04   -0.34143E-01   -0.96957E-02  2388   0.587E-01    0.319E+00
RMM:   4    -0.115656761458E+04    0.91912E-02   -0.52749E-02  2284   0.415E-01    0.517E+00
RMM:   5    -0.115653531292E+04    0.32302E-01   -0.19514E-02  2212   0.297E-01    0.135E+00
RMM:   6    -0.115654563058E+04   -0.10318E-01   -0.14811E-02  2150   0.256E-01    0.191E+00
RMM:   7    -0.115654784810E+04   -0.22175E-02   -0.66702E-03  2217   0.173E-01    0.211E+00
RMM:   8    -0.115654399991E+04    0.38482E-02   -0.54624E-03  2201   0.139E-01    0.198E+00
RMM:   9    -0.115654001864E+04    0.39813E-02   -0.52272E-03  2210   0.139E-01    0.991E-01
RMM:  10    -0.115654286960E+04   -0.28510E-02   -0.36423E-03  2201   0.127E-01    0.196E+00
RMM:  11    -0.115654222832E+04    0.64128E-03   -0.34995E-03  2164   0.130E-01    0.218E+00
RMM:  12    -0.115653813966E+04    0.40887E-02   -0.16182E-03  2191   0.854E-02    0.136E+00
RMM:  13    -0.115653802226E+04    0.11740E-03   -0.87977E-04  2115   0.666E-02    0.508E-01
RMM:  14    -0.115654012177E+04   -0.20995E-02   -0.80559E-04  2098   0.618E-02    0.489E-01
RMM:  15    -0.115654080631E+04   -0.68453E-03   -0.61874E-04  2077   0.565E-02    0.585E-01
RMM:  16    -0.115654051098E+04    0.29532E-03   -0.24755E-04  2108   0.345E-02    0.426E-01
RMM:  17    -0.115654061041E+04   -0.99422E-04   -0.13242E-04  2075   0.239E-02    0.264E-01
RMM:  18    -0.115654077555E+04   -0.16514E-03   -0.94726E-05  1978   0.211E-02    0.161E-01
RMM:  19    -0.115654088303E+04   -0.10748E-03   -0.41080E-05  1810   0.144E-02    0.104E-01
RMM:  20    -0.115654093584E+04   -0.52811E-04   -0.28050E-05  1674   0.118E-02    0.700E-02
RMM:  21    -0.115654100225E+04   -0.66407E-04   -0.19275E-05  1644   0.983E-03    0.761E-02
RMM:  22    -0.115654106319E+04   -0.60942E-04   -0.12910E-05  1548   0.781E-03    0.765E-02
RMM:  23    -0.115654117851E+04   -0.11532E-03   -0.90870E-06  1615   0.534E-03    0.405E-02
RMM:  24    -0.115654123256E+04   -0.54050E-04   -0.57339E-06  1424   0.502E-03    0.301E-02
RMM:  25    -0.115654129145E+04   -0.58894E-04   -0.31511E-06  1371   0.342E-03    0.117E-02
RMM:  26    -0.115654134621E+04   -0.54756E-04   -0.24553E-06  1320   0.296E-03    0.223E-02
RMM:  27    -0.115654139514E+04   -0.48932E-04   -0.24252E-06  1330   0.288E-03    0.427E-02
RMM:  28    -0.115654141984E+04   -0.24694E-04   -0.18038E-06  1258   0.267E-03    0.244E-02
RMM:  29    -0.115654146398E+04   -0.44143E-04   -0.20889E-06  1296   0.245E-03    0.121E-02
RMM:  30    -0.115654149579E+04   -0.31806E-04   -0.14748E-06  1200   0.193E-03    0.859E-03
RMM:  31    -0.115654152040E+04   -0.24617E-04   -0.13349E-06  1202   0.187E-03    0.818E-03
RMM:  32    -0.115654154053E+04   -0.20125E-04   -0.11749E-06  1169   0.164E-03    0.409E-03
RMM:  33    -0.115654155607E+04   -0.15546E-04   -0.94763E-07  1110   0.143E-03    0.248E-03
RMM:  34    -0.115654157191E+04   -0.15836E-04   -0.95160E-07  1113   0.127E-03    0.340E-03
RMM:  35    -0.115654158890E+04   -0.16991E-04   -0.11920E-06  1176   0.129E-03    0.552E-03
RMM:  36    -0.115654159774E+04   -0.88417E-05   -0.88409E-07  1096   0.122E-03    0.286E-03
RMM:  37    -0.115654160633E+04   -0.85854E-05   -0.86661E-07  1070   0.111E-03    0.844E-04
RMM:  38    -0.115654161153E+04   -0.51975E-05   -0.66189E-07  1074   0.108E-03    0.577E-04
RMM:  39    -0.115654161434E+04   -0.28112E-05   -0.49386E-07   995   0.888E-04    0.944E-04
RMM:  40    -0.115654161632E+04   -0.19849E-05   -0.37011E-07   960   0.816E-04    0.724E-04
RMM:  41    -0.115654161769E+04   -0.13665E-05   -0.27792E-07   905   0.682E-04    0.317E-04
RMM:  42    -0.115654161845E+04   -0.76418E-06   -0.19627E-07   864   0.621E-04
   5 F= -.11649004E+04 E0= -.11648895E+04  d E =-.556575E-01  mag=    14.7601
 trial-energy change:   -0.055657  1 .order   -0.055721   -0.089153   -0.022289
 step:   0.2425(harm=  0.2425)  dis= 0.02234  next Energy= -1164.904222 (dE=-0.594E-01)
 bond charge predicted
       N       E                     dE             d eps       ncg     rms          rms(c)
DAV:   1    -0.115653902173E+04    0.25960E-02   -0.17941E+00  2112   0.221E+00    0.577E-01
RMM:   2    -0.115654372546E+04   -0.47037E-02   -0.28400E-02  2117   0.366E-01    0.118E+00
RMM:   3    -0.115655269917E+04   -0.89737E-02   -0.10947E-02  2379   0.195E-01    0.202E+00
RMM:   4    -0.115654666031E+04    0.60389E-02   -0.73278E-03  2272   0.152E-01    0.172E+00
RMM:   5    -0.115654333807E+04    0.33222E-02   -0.32964E-03  2178   0.124E-01    0.380E-01
RMM:   6    -0.115654410865E+04   -0.77058E-03   -0.12020E-03  2140   0.741E-02    0.420E-01
RMM:   7    -0.115654449270E+04   -0.38405E-03   -0.61477E-04  2218   0.535E-02    0.628E-01
RMM:   8    -0.115654404813E+04    0.44457E-03   -0.58062E-04  2193   0.515E-02    0.512E-01
RMM:   9    -0.115654417517E+04   -0.12704E-03   -0.55757E-04  2197   0.421E-02    0.431E-01
RMM:  10    -0.115654428104E+04   -0.10587E-03   -0.40321E-04  2105   0.413E-02    0.558E-01
RMM:  11    -0.115654404841E+04    0.23264E-03   -0.27301E-04  2082   0.371E-02    0.536E-01
RMM:  12    -0.115654378524E+04    0.26317E-03   -0.87449E-05  1991   0.197E-02    0.339E-01
RMM:  13    -0.115654383915E+04   -0.53915E-04   -0.54019E-05  1808   0.164E-02    0.163E-01
RMM:  14    -0.115654399422E+04   -0.15507E-03   -0.58736E-05  1842   0.162E-02    0.107E-01
RMM:  15    -0.115654409038E+04   -0.96154E-04   -0.44403E-05  1795   0.154E-02    0.171E-01
RMM:  16    -0.115654405761E+04    0.32771E-04   -0.20890E-05  1630   0.102E-02    0.109E-01
RMM:  17    -0.115654407236E+04   -0.14756E-04   -0.10123E-05  1499   0.745E-03    0.538E-02
RMM:  18    -0.115654409906E+04   -0.26695E-04   -0.62506E-06  1437   0.576E-03    0.298E-02
RMM:  19    -0.115654411239E+04   -0.13330E-04   -0.30712E-06  1359   0.426E-03    0.240E-02
RMM:  20    -0.115654411822E+04   -0.58359E-05   -0.17521E-06  1287   0.310E-03    0.195E-02
RMM:  21    -0.115654412854E+04   -0.10315E-04   -0.12475E-06  1247   0.273E-03    0.215E-02
RMM:  22    -0.115654414058E+04   -0.12037E-04   -0.10530E-06  1181   0.231E-03    0.181E-02
RMM:  23    -0.115654415863E+04   -0.18058E-04   -0.70058E-07  1172   0.173E-03    0.626E-03
RMM:  24    -0.115654416888E+04   -0.10252E-04   -0.52678E-07  1114   0.151E-03    0.804E-03
RMM:  25    -0.115654417700E+04   -0.81161E-05   -0.38747E-07  1092   0.128E-03    0.418E-03
RMM:  26    -0.115654418933E+04   -0.12326E-04   -0.43643E-07  1135   0.105E-03    0.601E-03
RMM:  27    -0.115654419784E+04   -0.85164E-05   -0.36894E-07  1098   0.104E-03    0.833E-03
RMM:  28    -0.115654420438E+04   -0.65383E-05   -0.35151E-07  1068   0.954E-04    0.564E-03
RMM:  29    -0.115654421002E+04   -0.56355E-05   -0.30305E-07   997   0.877E-04    0.136E-03
RMM:  30    -0.115654421510E+04   -0.50822E-05   -0.28394E-07   965   0.774E-04    0.266E-03
RMM:  31    -0.115654421861E+04   -0.35139E-05   -0.23686E-07   970   0.743E-04    0.289E-03
RMM:  32    -0.115654422277E+04   -0.41555E-05   -0.25066E-07   986   0.661E-04    0.769E-04
RMM:  33    -0.115654422573E+04   -0.29640E-05   -0.21206E-07   971   0.669E-04    0.955E-04
RMM:  34    -0.115654422794E+04   -0.22023E-05   -0.19118E-07   905   0.564E-04    0.577E-04
RMM:  35    -0.115654423002E+04   -0.20856E-05   -0.17693E-07   932   0.579E-04    0.319E-04
RMM:  36    -0.115654423131E+04   -0.12896E-05   -0.15134E-07   908   0.523E-04    0.335E-04
RMM:  37    -0.115654423231E+04   -0.99662E-06   -0.12674E-07   852   0.499E-04
   6 F= -.11649042E+04 E0= -.11648932E+04  d E =-.593646E-01  mag=    14.7651
 curvature:  -0.34 expect dE=-0.138E+00 dE for cont linesearch -0.187E-08
 trial: gam= 0.77370 g(F)=  0.403E+00 g(S)=  0.176E-02 ort = 0.869E-04 (trialstep = 0.194E+00)
 search vector abs. value=  0.123E+01
 bond charge predicted
       N       E                     dE             d eps       ncg     rms          rms(c)
DAV:   1    -0.115653130980E+04    0.12922E-01   -0.15731E+01  2010   0.669E+00    0.174E+00
RMM:   2    -0.115657728740E+04   -0.45978E-01   -0.27413E-01  2156   0.114E+00    0.368E+00
RMM:   3    -0.115662327153E+04   -0.45984E-01   -0.98457E-02  2395   0.600E-01    0.334E+00
RMM:   4    -0.115660107347E+04    0.22198E-01   -0.53652E-02  2313   0.408E-01    0.436E+00
RMM:   5    -0.115657705646E+04    0.24017E-01   -0.17137E-02  2253   0.274E-01    0.168E+00
RMM:   6    -0.115658193861E+04   -0.48821E-02   -0.15504E-02  2166   0.259E-01    0.168E+00
RMM:   7    -0.115658519397E+04   -0.32554E-02   -0.69709E-03  2230   0.163E-01    0.211E+00
RMM:   8    -0.115657979314E+04    0.54008E-02   -0.45733E-03  2219   0.129E-01    0.166E+00
RMM:   9    -0.115657783646E+04    0.19567E-02   -0.45416E-03  2205   0.136E-01    0.810E-01
RMM:  10    -0.115658199254E+04   -0.41561E-02   -0.36493E-03  2224   0.127E-01    0.226E+00
RMM:  11    -0.115657899868E+04    0.29939E-02   -0.33600E-03  2161   0.128E-01    0.204E+00
RMM:  12    -0.115657498842E+04    0.40103E-02   -0.11539E-03  2245   0.694E-02    0.704E-01
RMM:  13    -0.115657736405E+04   -0.23756E-02   -0.10055E-03  2095   0.722E-02    0.359E-01
RMM:  14    -0.115657887075E+04   -0.15067E-02   -0.62793E-04  2105   0.584E-02    0.631E-01
RMM:  15    -0.115657854837E+04    0.32238E-03   -0.38119E-04  2103   0.421E-02    0.442E-01
RMM:  16    -0.115657857756E+04   -0.29193E-04   -0.16563E-04  2066   0.270E-02    0.312E-01
RMM:  17    -0.115657874011E+04   -0.16255E-03   -0.95665E-05  1989   0.218E-02    0.212E-01
RMM:  18    -0.115657882234E+04   -0.82228E-04   -0.48313E-05  1825   0.149E-02    0.153E-01
RMM:  19    -0.115657886865E+04   -0.46313E-04   -0.26119E-05  1664   0.113E-02    0.717E-02
RMM:  20    -0.115657894058E+04   -0.71931E-04   -0.16737E-05  1601   0.918E-03    0.701E-02
RMM:  21    -0.115657902248E+04   -0.81894E-04   -0.11846E-05  1579   0.744E-03    0.599E-02
RMM:  22    -0.115657907572E+04   -0.53241E-04   -0.12987E-05  1552   0.772E-03    0.437E-02
RMM:  23    -0.115657915054E+04   -0.74826E-04   -0.69792E-06  1502   0.573E-03    0.223E-02
RMM:  24    -0.115657918766E+04   -0.37111E-04   -0.37503E-06  1379   0.397E-03    0.178E-02
RMM:  25    -0.115657922721E+04   -0.39555E-04   -0.22871E-06  1328   0.322E-03    0.133E-02
RMM:  26    -0.115657927989E+04   -0.52679E-04   -0.24539E-06  1334   0.290E-03    0.252E-02
RMM:  27    -0.115657932387E+04   -0.43976E-04   -0.22957E-06  1309   0.279E-03    0.291E-02
RMM:  28    -0.115657935441E+04   -0.30549E-04   -0.18371E-06  1247   0.252E-03    0.221E-02
RMM:  29    -0.115657938949E+04   -0.35079E-04   -0.17400E-06  1246   0.217E-03    0.541E-03
RMM:  30    -0.115657941749E+04   -0.27998E-04   -0.14730E-06  1202   0.190E-03    0.914E-03
RMM:  31    -0.115657943467E+04   -0.17184E-04   -0.10548E-06  1168   0.162E-03    0.903E-03
RMM:  32    -0.115657945089E+04   -0.16211E-04   -0.98056E-07  1125   0.138E-03    0.564E-03
RMM:  33    -0.115657946165E+04   -0.10770E-04   -0.78893E-07  1093   0.131E-03    0.295E-03
RMM:  34    -0.115657947019E+04   -0.85331E-05   -0.66815E-07  1057   0.115E-03    0.248E-03
RMM:  35    -0.115657948117E+04   -0.10978E-04   -0.81470E-07  1133   0.111E-03    0.314E-03
RMM:  36    -0.115657948788E+04   -0.67112E-05   -0.71063E-07  1074   0.108E-03    0.175E-03
RMM:  37    -0.115657949178E+04   -0.39066E-05   -0.59771E-07  1056   0.969E-04    0.636E-04
RMM:  38    -0.115657949364E+04   -0.18581E-05   -0.42329E-07   971   0.875E-04    0.681E-04
RMM:  39    -0.115657949474E+04   -0.10943E-05   -0.30864E-07   945   0.728E-04    0.115E-03
RMM:  40    -0.115657949544E+04   -0.70720E-06   -0.21920E-07   914   0.652E-04
   7 F= -.11649449E+04 E0= -.11649336E+04  d E =-.407273E-01  mag=    14.7757
 trial-energy change:   -0.040727  1 .order   -0.040586   -0.078542   -0.002629
 step:   0.2007(harm=  0.2007)  dis= 0.01783  next Energy= -1164.944923 (dE=-0.408E-01)
 bond charge predicted
       N       E                     dE             d eps       ncg     rms          rms(c)
DAV:   1    -0.115657929903E+04    0.19571E-03   -0.18462E-02  2136   0.229E-01    0.593E-02
RMM:   2    -0.115657932154E+04   -0.22509E-04   -0.29372E-04  2172   0.379E-02    0.919E-02
RMM:   3    -0.115657947679E+04   -0.15525E-03   -0.11434E-04  2220   0.207E-02    0.345E-01
RMM:   4    -0.115657927380E+04    0.20299E-03   -0.97468E-05  1890   0.181E-02    0.155E-01
RMM:   5    -0.115657932693E+04   -0.53125E-04   -0.45136E-05  1698   0.143E-02    0.323E-02
RMM:   6    -0.115657934773E+04   -0.20802E-04   -0.12592E-05  1550   0.835E-03    0.358E-02
RMM:   7    -0.115657934991E+04   -0.21772E-05   -0.66535E-06  1453   0.608E-03    0.369E-02
RMM:   8    -0.115657934844E+04    0.14713E-05   -0.56610E-06  1418   0.577E-03    0.272E-02
RMM:   9    -0.115657935083E+04   -0.23969E-05   -0.42731E-06  1393   0.473E-03    0.347E-02
RMM:  10    -0.115657934922E+04    0.16144E-05   -0.25920E-06  1302   0.382E-03    0.301E-02
RMM:  11    -0.115657934790E+04    0.13178E-05   -0.10096E-06  1195   0.231E-03    0.191E-02
RMM:  12    -0.115657934885E+04   -0.94519E-06   -0.40734E-07  1149   0.165E-03
   8 F= -.11649449E+04 E0= -.11649336E+04  d E =-.407681E-01  mag=    14.7759
 curvature:  -0.30 expect dE=-0.550E-01 dE for cont linesearch -0.231E-11
 trial: gam= 0.44308 g(F)=  0.180E+00 g(S)=  0.661E-03 ort = 0.305E-05 (trialstep = 0.195E+00)
 search vector abs. value=  0.422E+00
 bond charge predicted
       N       E                     dE             d eps       ncg     rms          rms(c)
DAV:   1    -0.115658349720E+04   -0.41493E-02   -0.50241E+00  1998   0.402E+00    0.968E-01
RMM:   2    -0.115659714583E+04   -0.13649E-01   -0.89950E-02  2272   0.659E-01    0.119E+00
RMM:   3    -0.115662299361E+04   -0.25848E-01   -0.31351E-02  2331   0.382E-01    0.511E+00
RMM:   4    -0.115660297518E+04    0.20018E-01   -0.19992E-02  2360   0.275E-01    0.227E+00
RMM:   5    -0.115659800305E+04    0.49721E-02   -0.13640E-02  2180   0.237E-01    0.868E-01
RMM:   6    -0.115659784679E+04    0.15626E-03   -0.33884E-03  2222   0.117E-01    0.578E-01
RMM:   7    -0.115659831782E+04   -0.47103E-03   -0.18941E-03  2257   0.878E-02    0.663E-01
RMM:   8    -0.115659789014E+04    0.42768E-03   -0.12073E-03  2331   0.667E-02    0.555E-01
RMM:   9    -0.115659779609E+04    0.94044E-04   -0.96475E-04  2213   0.632E-02    0.412E-01
RMM:  10    -0.115659802748E+04   -0.23139E-03   -0.73868E-04  2227   0.547E-02    0.474E-01
RMM:  11    -0.115659769170E+04    0.33578E-03   -0.42824E-04  2139   0.450E-02    0.299E-01
RMM:  12    -0.115659770493E+04   -0.13226E-04   -0.16532E-04  2090   0.284E-02    0.188E-01
RMM:  13    -0.115659774505E+04   -0.40122E-04   -0.76545E-05  1903   0.195E-02    0.937E-02
RMM:  14    -0.115659787745E+04   -0.13240E-03   -0.72906E-05  1870   0.185E-02    0.123E-01
RMM:  15    -0.115659789182E+04   -0.14369E-04   -0.52843E-05  1752   0.157E-02    0.865E-02
RMM:  16    -0.115659791745E+04   -0.25627E-04   -0.29952E-05  1656   0.114E-02    0.727E-02
RMM:  17    -0.115659793147E+04   -0.14020E-04   -0.13997E-05  1539   0.889E-03    0.506E-02
RMM:  18    -0.115659794319E+04   -0.11723E-04   -0.70356E-06  1446   0.595E-03    0.476E-02
RMM:  19    -0.115659795529E+04   -0.12098E-04   -0.38996E-06  1378   0.444E-03    0.257E-02
RMM:  20    -0.115659798098E+04   -0.25692E-04   -0.39025E-06  1393   0.456E-03    0.296E-02
RMM:  21    -0.115659800686E+04   -0.25877E-04   -0.27937E-06  1345   0.379E-03    0.168E-02
RMM:  22    -0.115659803349E+04   -0.26637E-04   -0.20633E-06  1291   0.323E-03    0.166E-02
RMM:  23    -0.115659805262E+04   -0.19125E-04   -0.13319E-06  1238   0.254E-03    0.977E-03
RMM:  24    -0.115659807159E+04   -0.18970E-04   -0.96080E-07  1205   0.208E-03    0.770E-03
RMM:  25    -0.115659808728E+04   -0.15693E-04   -0.75521E-07  1154   0.178E-03    0.128E-02
RMM:  26    -0.115659810584E+04   -0.18557E-04   -0.86636E-07  1191   0.178E-03    0.555E-03
RMM:  27    -0.115659812862E+04   -0.22781E-04   -0.10697E-06  1193   0.183E-03    0.575E-03
RMM:  28    -0.115659814139E+04   -0.12768E-04   -0.75364E-07  1129   0.154E-03    0.282E-03
RMM:  29    -0.115659815026E+04   -0.88696E-05   -0.54380E-07  1073   0.119E-03    0.347E-03
RMM:  30    -0.115659815633E+04   -0.60704E-05   -0.43106E-07  1060   0.104E-03    0.189E-03
RMM:  31    -0.115659816231E+04   -0.59802E-05   -0.38149E-07  1019   0.918E-04    0.171E-03
RMM:  32    -0.115659816736E+04   -0.50560E-05   -0.33726E-07  1023   0.845E-04    0.125E-03
RMM:  33    -0.115659817285E+04   -0.54876E-05   -0.36004E-07  1048   0.765E-04    0.843E-04
RMM:  34    -0.115659817602E+04   -0.31654E-05   -0.29036E-07   994   0.740E-04    0.115E-03
RMM:  35    -0.115659817842E+04   -0.24051E-05   -0.25267E-07   947   0.634E-04    0.799E-04
RMM:  36    -0.115659818039E+04   -0.19662E-05   -0.21564E-07   934   0.630E-04    0.747E-04
RMM:  37    -0.115659818164E+04   -0.12510E-05   -0.18050E-07   897   0.557E-04    0.811E-04
RMM:  38    -0.115659818251E+04   -0.86609E-06   -0.14441E-07   870   0.531E-04
   9 F= -.11649674E+04 E0= -.11649559E+04  d E =-.225030E-01  mag=    14.7824
 trial-energy change:   -0.022503  1 .order   -0.022561   -0.035284   -0.009838
 step:   0.2709(harm=  0.2709)  dis= 0.01304  next Energy= -1164.969382 (dE=-0.245E-01)
 bond charge predicted
       N       E                     dE             d eps       ncg     rms          rms(c)
DAV:   1    -0.115659657853E+04    0.16031E-02   -0.75081E-01  2112   0.156E+00    0.370E-01
RMM:   2    -0.115659841585E+04   -0.18373E-02   -0.13072E-02  2282   0.252E-01    0.491E-01
RMM:   3    -0.115660269688E+04   -0.42810E-02   -0.45696E-03  2321   0.146E-01    0.200E+00
RMM:   4    -0.115659920638E+04    0.34905E-02   -0.32593E-03  2336   0.109E-01    0.107E+00
RMM:   5    -0.115659840502E+04    0.80136E-03   -0.20475E-03  2164   0.910E-02    0.265E-01
RMM:   6    -0.115659870099E+04   -0.29596E-03   -0.63328E-04  2163   0.521E-02    0.231E-01
RMM:   7    -0.115659873153E+04   -0.30546E-04   -0.29163E-04  2251   0.338E-02    0.238E-01
RMM:   8    -0.115659869752E+04    0.34013E-04   -0.22018E-04  2157   0.296E-02    0.233E-01
RMM:   9    -0.115659863898E+04    0.58542E-04   -0.15044E-04  2099   0.238E-02    0.146E-01
RMM:  10    -0.115659871167E+04   -0.72694E-04   -0.11181E-04  1985   0.227E-02    0.198E-01
RMM:  11    -0.115659860767E+04    0.10400E-03   -0.60356E-05  1812   0.177E-02    0.799E-02
RMM:  12    -0.115659864038E+04   -0.32704E-04   -0.19197E-05  1592   0.971E-03    0.432E-02
RMM:  13    -0.115659866569E+04   -0.25310E-04   -0.11066E-05  1525   0.764E-03    0.520E-02
RMM:  14    -0.115659867584E+04   -0.10157E-04   -0.84090E-06  1460   0.678E-03    0.554E-02
RMM:  15    -0.115659867737E+04   -0.15251E-05   -0.52649E-06  1418   0.551E-03    0.221E-02
RMM:  16    -0.115659868806E+04   -0.10693E-04   -0.39071E-06  1390   0.471E-03    0.284E-02
RMM:  17    -0.115659869021E+04   -0.21524E-05   -0.16829E-06  1285   0.319E-03    0.212E-02
RMM:  18    -0.115659869197E+04   -0.17503E-05   -0.89098E-07  1197   0.227E-03    0.109E-02
RMM:  19    -0.115659869792E+04   -0.59540E-05   -0.73286E-07  1162   0.208E-03    0.184E-02
RMM:  20    -0.115659870223E+04   -0.43126E-05   -0.57855E-07  1136   0.188E-03    0.192E-02
RMM:  21    -0.115659870634E+04   -0.41048E-05   -0.37097E-07  1096   0.139E-03    0.117E-02
RMM:  22    -0.115659871284E+04   -0.65057E-05   -0.30812E-07  1078   0.123E-03    0.469E-03
RMM:  23    -0.115659871710E+04   -0.42573E-05   -0.25696E-07  1035   0.113E-03    0.616E-03
RMM:  24    -0.115659872069E+04   -0.35888E-05   -0.18432E-07  1052   0.900E-04    0.373E-03
RMM:  25    -0.115659872466E+04   -0.39668E-05   -0.15631E-07  1016   0.765E-04    0.200E-03
RMM:  26    -0.115659872951E+04   -0.48596E-05   -0.18831E-07  1031   0.751E-04    0.208E-03
RMM:  27    -0.115659873330E+04   -0.37888E-05   -0.18408E-07  1005   0.749E-04    0.182E-03
RMM:  28    -0.115659873534E+04   -0.20337E-05   -0.14031E-07   900   0.629E-04    0.963E-04
RMM:  29    -0.115659873714E+04   -0.18046E-05   -0.11826E-07   894   0.532E-04    0.922E-04
RMM:  30    -0.115659873838E+04   -0.12387E-05   -0.96858E-08   850   0.503E-04    0.728E-04
RMM:  31    -0.115659873943E+04   -0.10529E-05   -0.81968E-08   811   0.451E-04    0.552E-04
RMM:  32    -0.115659874044E+04   -0.10081E-05   -0.76358E-08   840   0.434E-04    0.354E-04
RMM:  33    -0.115659874134E+04   -0.90307E-06   -0.74459E-08   827   0.419E-04
  10 F= -.11649693E+04 E0= -.11649577E+04  d E =-.244279E-01  mag=    14.7849
 curvature:  -0.32 expect dE=-0.323E-01 dE for cont linesearch -0.550E-06
 trial: gam= 0.56205 g(F)=  0.995E-01 g(S)=  0.269E-02 ort = 0.857E-03 (trialstep = 0.210E+00)
 search vector abs. value=  0.236E+00
 bond charge predicted
       N       E                     dE             d eps       ncg     rms          rms(c)
DAV:   1    -0.115660543721E+04   -0.66968E-02   -0.32074E+00  1992   0.330E+00    0.720E-01
RMM:   2    -0.115661435554E+04   -0.89183E-02   -0.53477E-02  2326   0.511E-01    0.123E+00
RMM:   3    -0.115663267888E+04   -0.18323E-01   -0.18304E-02  2360   0.282E-01    0.511E+00
RMM:   4    -0.115661248272E+04    0.20196E-01   -0.15493E-02  2292   0.241E-01    0.182E+00
RMM:   5    -0.115661457620E+04   -0.20935E-02   -0.97038E-03  2168   0.202E-01    0.871E-01
RMM:   6    -0.115661365036E+04    0.92584E-03   -0.20377E-03  2184   0.935E-02    0.335E-01
RMM:   7    -0.115661488536E+04   -0.12350E-02   -0.12260E-03  2261   0.681E-02    0.732E-01
RMM:   8    -0.115661408515E+04    0.80022E-03   -0.70904E-04  2293   0.529E-02    0.550E-01
RMM:   9    -0.115661391133E+04    0.17382E-03   -0.52871E-04  2230   0.470E-02    0.271E-01
RMM:  10    -0.115661431484E+04   -0.40352E-03   -0.37149E-04  2218   0.405E-02    0.511E-01
RMM:  11    -0.115661409106E+04    0.22378E-03   -0.27920E-04  2105   0.364E-02    0.445E-01
RMM:  12    -0.115661391735E+04    0.17371E-03   -0.95191E-05  2023   0.205E-02    0.218E-01
RMM:  13    -0.115661403141E+04   -0.11406E-03   -0.65076E-05  1809   0.183E-02    0.113E-01
RMM:  14    -0.115661412883E+04   -0.97421E-04   -0.28827E-05  1756   0.119E-02    0.567E-02
RMM:  15    -0.115661418983E+04   -0.61004E-04   -0.33931E-05  1732   0.128E-02    0.584E-02
RMM:  16    -0.115661420673E+04   -0.16894E-04   -0.17335E-05  1538   0.913E-03    0.413E-02
RMM:  17    -0.115661421523E+04   -0.85014E-05   -0.80871E-06  1439   0.653E-03    0.338E-02
RMM:  18    -0.115661422165E+04   -0.64176E-05   -0.44723E-06  1402   0.504E-03    0.220E-02
RMM:  19    -0.115661422844E+04   -0.67892E-05   -0.24485E-06  1352   0.386E-03    0.193E-02
RMM:  20    -0.115661423705E+04   -0.86176E-05   -0.15882E-06  1277   0.283E-03    0.181E-02
RMM:  21    -0.115661424655E+04   -0.94937E-05   -0.13487E-06  1258   0.273E-03    0.119E-02
RMM:  22    -0.115661425505E+04   -0.85031E-05   -0.99729E-07  1196   0.228E-03    0.111E-02
RMM:  23    -0.115661426549E+04   -0.10442E-04   -0.73928E-07  1193   0.180E-03    0.829E-03
RMM:  24    -0.115661427172E+04   -0.62259E-05   -0.50916E-07  1118   0.161E-03    0.540E-03
RMM:  25    -0.115661427769E+04   -0.59676E-05   -0.34339E-07  1077   0.124E-03    0.514E-03
RMM:  26    -0.115661428395E+04   -0.62660E-05   -0.35911E-07  1087   0.120E-03    0.572E-03
RMM:  27    -0.115661429204E+04   -0.80890E-05   -0.40957E-07  1121   0.115E-03    0.368E-03
RMM:  28    -0.115661429696E+04   -0.49176E-05   -0.30462E-07  1054   0.943E-04    0.193E-03
RMM:  29    -0.115661430007E+04   -0.31083E-05   -0.23958E-07   993   0.805E-04    0.179E-03
RMM:  30    -0.115661430220E+04   -0.21372E-05   -0.18539E-07   959   0.700E-04    0.126E-03
RMM:  31    -0.115661430406E+04   -0.18571E-05   -0.14849E-07   868   0.597E-04    0.118E-03
RMM:  32    -0.115661430579E+04   -0.17343E-05   -0.12916E-07   872   0.540E-04    0.740E-04
RMM:  33    -0.115661430754E+04   -0.17462E-05   -0.12837E-07   918   0.510E-04    0.108E-03
RMM:  34    -0.115661430861E+04   -0.10722E-05   -0.10316E-07   869   0.486E-04    0.107E-03
RMM:  35    -0.115661430948E+04   -0.86600E-06   -0.86624E-08   798   0.431E-04
  11 F= -.11649876E+04 E0= -.11649759E+04  d E =-.182435E-01  mag=    14.7832
 trial-energy change:   -0.018243  1 .order   -0.018278   -0.021615   -0.014940
 step:   0.6815(harm=  0.6815)  dis= 0.02078  next Energy= -1165.004344 (dE=-0.350E-01)
 bond charge predicted
       N       E                     dE             d eps       ncg     rms          rms(c)
DAV:   1    -0.115657893804E+04    0.35371E-01   -0.16059E+01  1992   0.738E+00    0.162E+00
RMM:   2    -0.115662581314E+04   -0.46875E-01   -0.28312E-01  2317   0.116E+00    0.233E+00
RMM:   3    -0.115672187013E+04   -0.96057E-01   -0.96101E-02  2365   0.642E-01    0.112E+01
RMM:   4    -0.115662297886E+04    0.98891E-01   -0.64915E-02  2311   0.501E-01    0.401E+00
RMM:   5    -0.115662861132E+04   -0.56325E-02   -0.43368E-02  2184   0.422E-01    0.183E+00
RMM:   6    -0.115662430120E+04    0.43101E-02   -0.11556E-02  2200   0.218E-01    0.112E+00
RMM:   7    -0.115662706364E+04   -0.27624E-02   -0.62716E-03  2286   0.146E-01    0.144E+00
RMM:   8    -0.115662408155E+04    0.29821E-02   -0.29488E-03  2304   0.113E-01    0.104E+00
RMM:   9    -0.115662415768E+04   -0.76128E-04   -0.24638E-03  2242   0.103E-01    0.662E-01
RMM:  10    -0.115662523033E+04   -0.10727E-02   -0.18539E-03  2267   0.889E-02    0.118E+00
RMM:  11    -0.115662408084E+04    0.11495E-02   -0.12723E-03  2169   0.768E-02    0.907E-01
RMM:  12    -0.115662377504E+04    0.30580E-03   -0.36222E-04  2175   0.418E-02    0.586E-01
RMM:  13    -0.115662407182E+04   -0.29678E-03   -0.37053E-04  2092   0.408E-02    0.431E-01
RMM:  14    -0.115662438798E+04   -0.31615E-03   -0.23079E-04  2098   0.335E-02    0.356E-01
RMM:  15    -0.115662468870E+04   -0.30072E-03   -0.29675E-04  2035   0.380E-02    0.389E-01
RMM:  16    -0.115662456064E+04    0.12805E-03   -0.13183E-04  2051   0.233E-02    0.248E-01
RMM:  17    -0.115662459380E+04   -0.33156E-04   -0.63820E-05  1863   0.172E-02    0.122E-01
RMM:  18    -0.115662468770E+04   -0.93897E-04   -0.33739E-05  1757   0.129E-02    0.559E-02
RMM:  19    -0.115662473575E+04   -0.48056E-04   -0.19084E-05  1588   0.982E-03    0.475E-02
RMM:  20    -0.115662476603E+04   -0.30278E-04   -0.94678E-06  1499   0.659E-03    0.322E-02
RMM:  21    -0.115662479252E+04   -0.26489E-04   -0.73395E-06  1442   0.590E-03    0.344E-02
RMM:  22    -0.115662482552E+04   -0.33002E-04   -0.76192E-06  1427   0.559E-03    0.382E-02
RMM:  23    -0.115662485649E+04   -0.30968E-04   -0.45701E-06  1388   0.464E-03    0.333E-02
RMM:  24    -0.115662487698E+04   -0.20487E-04   -0.26889E-06  1335   0.360E-03    0.158E-02
RMM:  25    -0.115662489550E+04   -0.18524E-04   -0.16383E-06  1256   0.286E-03    0.106E-02
RMM:  26    -0.115662491495E+04   -0.19454E-04   -0.15292E-06  1245   0.236E-03    0.132E-02
RMM:  27    -0.115662493795E+04   -0.22998E-04   -0.14556E-06  1249   0.240E-03    0.960E-03
RMM:  28    -0.115662495594E+04   -0.17992E-04   -0.10735E-06  1212   0.192E-03    0.104E-02
RMM:  29    -0.115662496732E+04   -0.11375E-04   -0.78260E-07  1153   0.164E-03    0.940E-03
RMM:  30    -0.115662497528E+04   -0.79614E-05   -0.61838E-07  1111   0.141E-03    0.481E-03
RMM:  31    -0.115662498355E+04   -0.82706E-05   -0.51220E-07  1086   0.118E-03    0.557E-03
RMM:  32    -0.115662499054E+04   -0.69851E-05   -0.45125E-07  1078   0.106E-03    0.628E-03
RMM:  33    -0.115662499615E+04   -0.56136E-05   -0.39234E-07  1039   0.897E-04    0.170E-03
RMM:  34    -0.115662500105E+04   -0.49044E-05   -0.34640E-07   998   0.817E-04    0.242E-03
RMM:  35    -0.115662500551E+04   -0.44538E-05   -0.34161E-07  1019   0.759E-04    0.813E-04
RMM:  36    -0.115662500932E+04   -0.38171E-05   -0.32482E-07  1014   0.743E-04    0.207E-03
RMM:  37    -0.115662501197E+04   -0.26433E-05   -0.28043E-07   966   0.690E-04    0.127E-03
RMM:  38    -0.115662501432E+04   -0.23565E-05   -0.26454E-07   945   0.655E-04    0.515E-04
RMM:  39    -0.115662501563E+04   -0.13035E-05   -0.20916E-07   912   0.623E-04    0.404E-04
RMM:  40    -0.115662501645E+04   -0.82068E-06   -0.16525E-07   875   0.545E-04
  12 F= -.11650042E+04 E0= -.11649924E+04  d E =-.348983E-01  mag=    14.7797
 curvature:  -0.78 expect dE=-0.104E+00 dE for cont linesearch -0.146E-07
 trial: gam= 1.30170 g(F)=  0.132E+00 g(S)=  0.111E-02 ort =-0.664E-04 (trialstep = 0.135E+00)
 search vector abs. value=  0.533E+00
 bond charge predicted
       N       E                     dE             d eps       ncg     rms          rms(c)
DAV:   1    -0.115662758050E+04   -0.25649E-02   -0.30418E+00  2046   0.327E+00    0.697E-01
RMM:   2    -0.115663590358E+04   -0.83231E-02   -0.53815E-02  2311   0.491E-01    0.119E+00
RMM:   3    -0.115664445561E+04   -0.85520E-02   -0.15806E-02  2335   0.271E-01    0.312E+00
RMM:   4    -0.115664031371E+04    0.41419E-02   -0.10109E-02  2364   0.193E-01    0.194E+00
RMM:   5    -0.115663534889E+04    0.49648E-02   -0.72712E-03  2176   0.167E-01    0.795E-01
RMM:   6    -0.115663499205E+04    0.35684E-03   -0.18420E-03  2196   0.876E-02    0.333E-01
RMM:   7    -0.115663598800E+04   -0.99595E-03   -0.12947E-03  2252   0.694E-02    0.617E-01
RMM:   8    -0.115663559623E+04    0.39177E-03   -0.97653E-04  2265   0.585E-02    0.559E-01
RMM:   9    -0.115663550198E+04    0.94254E-04   -0.88573E-04  2206   0.571E-02    0.408E-01
RMM:  10    -0.115663561859E+04   -0.11661E-03   -0.57551E-04  2193   0.492E-02    0.519E-01
RMM:  11    -0.115663532523E+04    0.29336E-03   -0.33577E-04  2093   0.405E-02    0.422E-01
RMM:  12    -0.115663520788E+04    0.11735E-03   -0.12425E-04  2058   0.236E-02    0.220E-01
RMM:  13    -0.115663529375E+04   -0.85875E-04   -0.71251E-05  1864   0.192E-02    0.886E-02
RMM:  14    -0.115663540802E+04   -0.11427E-03   -0.51936E-05  1836   0.157E-02    0.139E-01
RMM:  15    -0.115663537592E+04    0.32097E-04   -0.27766E-05  1657   0.114E-02    0.411E-02
RMM:  16    -0.115663541233E+04   -0.36410E-04   -0.11282E-05  1534   0.767E-03    0.391E-02
RMM:  17    -0.115663542149E+04   -0.91512E-05   -0.62946E-06  1421   0.610E-03    0.280E-02
RMM:  18    -0.115663542691E+04   -0.54213E-05   -0.27057E-06  1349   0.384E-03    0.166E-02
RMM:  19    -0.115663543201E+04   -0.51024E-05   -0.20416E-06  1294   0.336E-03    0.166E-02
RMM:  20    -0.115663543636E+04   -0.43510E-05   -0.14970E-06  1257   0.267E-03    0.194E-02
RMM:  21    -0.115663544325E+04   -0.68904E-05   -0.12305E-06  1243   0.258E-03    0.100E-02
RMM:  22    -0.115663545214E+04   -0.88908E-05   -0.91548E-07  1203   0.224E-03    0.990E-03
RMM:  23    -0.115663545823E+04   -0.60853E-05   -0.64324E-07  1139   0.192E-03    0.540E-03
RMM:  24    -0.115663546271E+04   -0.44827E-05   -0.41784E-07  1097   0.137E-03    0.505E-03
RMM:  25    -0.115663546653E+04   -0.38184E-05   -0.29520E-07  1059   0.112E-03    0.429E-03
RMM:  26    -0.115663547003E+04   -0.35005E-05   -0.26675E-07  1038   0.996E-04    0.345E-03
RMM:  27    -0.115663547369E+04   -0.36650E-05   -0.25569E-07  1040   0.986E-04    0.394E-03
RMM:  28    -0.115663547632E+04   -0.26274E-05   -0.19610E-07  1012   0.810E-04    0.163E-03
RMM:  29    -0.115663547868E+04   -0.23570E-05   -0.16185E-07   924   0.651E-04    0.233E-03
RMM:  30    -0.115663548037E+04   -0.16926E-05   -0.13294E-07   921   0.592E-04    0.939E-04
RMM:  31    -0.115663548184E+04   -0.14696E-05   -0.11450E-07   883   0.519E-04    0.996E-04
RMM:  32    -0.115663548291E+04   -0.10727E-05   -0.98161E-08   861   0.501E-04    0.898E-04
RMM:  33    -0.115663548377E+04   -0.85837E-06   -0.79695E-08   801   0.448E-04
  13 F= -.11650171E+04 E0= -.11650053E+04  d E =-.128590E-01  mag=    14.7786
 trial-energy change:   -0.012859  1 .order   -0.012894   -0.017933   -0.007854
 step:   0.2444(harm=  0.2403)  dis= 0.01076  next Energy= -1165.020266 (dE=-0.160E-01)
 bond charge predicted
       N       E                     dE             d eps       ncg     rms          rms(c)
DAV:   1    -0.115663140514E+04    0.40778E-02   -0.19945E+00  2016   0.265E+00    0.565E-01
RMM:   2    -0.115663682210E+04   -0.54170E-02   -0.35201E-02  2315   0.397E-01    0.996E-01
RMM:   3    -0.115664239814E+04   -0.55760E-02   -0.10292E-02  2335   0.219E-01    0.248E+00
RMM:   4    -0.115664012557E+04    0.22726E-02   -0.67526E-03  2352   0.157E-01    0.171E+00
RMM:   5    -0.115663606653E+04    0.40590E-02   -0.48417E-03  2178   0.135E-01    0.579E-01
RMM:   6    -0.115663625060E+04   -0.18407E-03   -0.12157E-03  2182   0.711E-02    0.276E-01
RMM:   7    -0.115663689324E+04   -0.64263E-03   -0.79234E-04  2268   0.557E-02    0.500E-01
RMM:   8    -0.115663660103E+04    0.29221E-03   -0.61712E-04  2234   0.458E-02    0.416E-01
RMM:   9    -0.115663655577E+04    0.45258E-04   -0.57539E-04  2194   0.480E-02    0.284E-01
RMM:  10    -0.115663662436E+04   -0.68584E-04   -0.33906E-04  2141   0.383E-02    0.338E-01
RMM:  11    -0.115663647308E+04    0.15127E-03   -0.16870E-04  2044   0.281E-02    0.266E-01
RMM:  12    -0.115663643288E+04    0.40206E-04   -0.66345E-05  1884   0.173E-02    0.135E-01
RMM:  13    -0.115663647533E+04   -0.42448E-04   -0.37645E-05  1715   0.139E-02    0.852E-02
RMM:  14    -0.115663652275E+04   -0.47428E-04   -0.29362E-05  1676   0.116E-02    0.680E-02
RMM:  15    -0.115663651792E+04    0.48380E-05   -0.16030E-05  1512   0.885E-03    0.335E-02
RMM:  16    -0.115663653115E+04   -0.13235E-04   -0.52540E-06  1407   0.534E-03    0.267E-02
RMM:  17    -0.115663653612E+04   -0.49649E-05   -0.30704E-06  1358   0.442E-03    0.150E-02
RMM:  18    -0.115663654032E+04   -0.42022E-05   -0.13161E-06  1247   0.275E-03    0.128E-02
RMM:  19    -0.115663654366E+04   -0.33451E-05   -0.10515E-06  1199   0.232E-03    0.127E-02
RMM:  20    -0.115663654942E+04   -0.57571E-05   -0.72120E-07  1187   0.188E-03    0.971E-03
RMM:  21    -0.115663655479E+04   -0.53664E-05   -0.67319E-07  1137   0.195E-03    0.700E-03
RMM:  22    -0.115663656015E+04   -0.53665E-05   -0.47639E-07  1128   0.154E-03    0.573E-03
RMM:  23    -0.115663656303E+04   -0.28747E-05   -0.32737E-07  1079   0.130E-03    0.633E-03
RMM:  24    -0.115663656476E+04   -0.17277E-05   -0.22020E-07  1018   0.991E-04    0.352E-03
RMM:  25    -0.115663656775E+04   -0.29935E-05   -0.16892E-07  1016   0.809E-04    0.248E-03
RMM:  26    -0.115663657058E+04   -0.28344E-05   -0.17931E-07   982   0.819E-04    0.302E-03
RMM:  27    -0.115663657283E+04   -0.22464E-05   -0.16251E-07   983   0.796E-04    0.263E-03
RMM:  28    -0.115663657445E+04   -0.16192E-05   -0.11723E-07   901   0.616E-04    0.109E-03
RMM:  29    -0.115663657613E+04   -0.16820E-05   -0.10552E-07   896   0.535E-04    0.178E-03
RMM:  30    -0.115663657722E+04   -0.10941E-05   -0.86356E-08   864   0.498E-04    0.638E-04
RMM:  31    -0.115663657823E+04   -0.10068E-05   -0.76848E-08   817   0.450E-04    0.107E-03
RMM:  32    -0.115663657896E+04   -0.72534E-06   -0.64060E-08   784   0.434E-04
  14 F= -.11650201E+04 E0= -.11650083E+04  d E =-.158853E-01  mag=    14.7778
 curvature:  -0.48 expect dE=-0.783E-01 dE for cont linesearch -0.509E-05
 trial: gam= 1.23429 g(F)=  0.161E+00 g(S)=  0.153E-02 ort =-0.237E-02 (trialstep = 0.864E-01)
 search vector abs. value=  0.969E+00
 bond charge predicted
       N       E                     dE             d eps       ncg     rms          rms(c)
DAV:   1    -0.115663985872E+04   -0.32805E-02   -0.22353E+00  2004   0.284E+00    0.584E-01
RMM:   2    -0.115664584906E+04   -0.59903E-02   -0.39031E-02  2313   0.426E-01    0.102E+00
RMM:   3    -0.115665035326E+04   -0.45042E-02   -0.11568E-02  2337   0.231E-01    0.193E+00
RMM:   4    -0.115665125006E+04   -0.89680E-03   -0.64853E-03  2393   0.158E-01    0.187E+00
RMM:   5    -0.115664476812E+04    0.64819E-02   -0.45349E-03  2208   0.126E-01    0.653E-01
RMM:   6    -0.115664519402E+04   -0.42590E-03   -0.13397E-03  2191   0.735E-02    0.275E-01
RMM:   7    -0.115664557072E+04   -0.37670E-03   -0.63751E-04  2295   0.520E-02    0.337E-01
RMM:   8    -0.115664564133E+04   -0.70608E-04   -0.48135E-04  2253   0.430E-02    0.413E-01
RMM:   9    -0.115664556797E+04    0.73361E-04   -0.44521E-04  2225   0.382E-02    0.322E-01
RMM:  10    -0.115664562749E+04   -0.59519E-04   -0.33189E-04  2175   0.355E-02    0.350E-01
RMM:  11    -0.115664548602E+04    0.14147E-03   -0.18182E-04  2069   0.290E-02    0.301E-01
RMM:  12    -0.115664542460E+04    0.61420E-04   -0.76350E-05  1933   0.185E-02    0.139E-01
RMM:  13    -0.115664548093E+04   -0.56328E-04   -0.52530E-05  1793   0.163E-02    0.937E-02
RMM:  14    -0.115664553322E+04   -0.52296E-04   -0.31570E-05  1734   0.124E-02    0.108E-01
RMM:  15    -0.115664551254E+04    0.20682E-04   -0.15487E-05  1529   0.896E-03    0.554E-02
RMM:  16    -0.115664552777E+04   -0.15229E-04   -0.73617E-06  1449   0.613E-03    0.264E-02
RMM:  17    -0.115664554027E+04   -0.12499E-04   -0.39914E-06  1391   0.495E-03    0.314E-02
RMM:  18    -0.115664554299E+04   -0.27171E-05   -0.23015E-06  1320   0.356E-03    0.166E-02
RMM:  19    -0.115664554694E+04   -0.39481E-05   -0.15697E-06  1249   0.295E-03    0.128E-02
RMM:  20    -0.115664555079E+04   -0.38571E-05   -0.84730E-07  1189   0.218E-03    0.171E-02
RMM:  21    -0.115664555562E+04   -0.48245E-05   -0.76712E-07  1191   0.199E-03    0.117E-02
RMM:  22    -0.115664556148E+04   -0.58676E-05   -0.63489E-07  1165   0.185E-03    0.581E-03
RMM:  23    -0.115664556694E+04   -0.54589E-05   -0.43432E-07  1112   0.148E-03    0.777E-03
RMM:  24    -0.115664557020E+04   -0.32551E-05   -0.32213E-07  1085   0.123E-03    0.369E-03
RMM:  25    -0.115664557395E+04   -0.37534E-05   -0.23052E-07  1057   0.918E-04    0.379E-03
RMM:  26    -0.115664557695E+04   -0.29947E-05   -0.19764E-07  1016   0.847E-04    0.267E-03
RMM:  27    -0.115664558004E+04   -0.30934E-05   -0.19873E-07  1000   0.847E-04    0.437E-03
RMM:  28    -0.115664558274E+04   -0.26999E-05   -0.16911E-07  1004   0.717E-04    0.275E-03
RMM:  29    -0.115664558473E+04   -0.19922E-05   -0.13903E-07   900   0.607E-04    0.243E-03
RMM:  30    -0.115664558653E+04   -0.17946E-05   -0.12536E-07   913   0.576E-04    0.248E-03
RMM:  31    -0.115664558781E+04   -0.12847E-05   -0.10209E-07   861   0.517E-04    0.835E-04
RMM:  32    -0.115664558940E+04   -0.15904E-05   -0.10114E-07   864   0.482E-04    0.975E-04
RMM:  33    -0.115664559057E+04   -0.11678E-05   -0.88389E-08   867   0.460E-04    0.412E-04
RMM:  34    -0.115664559151E+04   -0.94488E-06   -0.76085E-08   797   0.415E-04
  15 F= -.11650311E+04 E0= -.11650194E+04  d E =-.109601E-01  mag=    14.7790
 trial-energy change:   -0.010960  1 .order   -0.010990   -0.013778   -0.008201
 step:   0.2248(harm=  0.2134)  dis= 0.01432  next Energy= -1165.037544 (dE=-0.174E-01)
 bond charge predicted
       N       E                     dE             d eps       ncg     rms          rms(c)
DAV:   1    -0.115663350474E+04    0.12086E-01   -0.57453E+00  1992   0.455E+00    0.937E-01
RMM:   2    -0.115664943435E+04   -0.15930E-01   -0.10184E-01  2311   0.686E-01    0.157E+00
RMM:   3    -0.115665877342E+04   -0.93391E-02   -0.30152E-02  2342   0.369E-01    0.253E+00
RMM:   4    -0.115666018209E+04   -0.14087E-02   -0.14270E-02  2417   0.238E-01    0.236E+00
RMM:   5    -0.115664888137E+04    0.11301E-01   -0.91229E-03  2234   0.181E-01    0.150E+00
RMM:   6    -0.115664726157E+04    0.16198E-02   -0.33271E-03  2226   0.113E-01    0.472E-01
RMM:   7    -0.115664871510E+04   -0.14535E-02   -0.19799E-03  2206   0.924E-02    0.671E-01
RMM:   8    -0.115664864051E+04    0.74594E-04   -0.12944E-03  2292   0.741E-02    0.751E-01
RMM:   9    -0.115664851821E+04    0.12230E-03   -0.11493E-03  2265   0.625E-02    0.617E-01
RMM:  10    -0.115664867088E+04   -0.15267E-03   -0.10739E-03  2236   0.614E-02    0.685E-01
RMM:  11    -0.115664819536E+04    0.47552E-03   -0.68545E-04  2158   0.583E-02    0.618E-01
RMM:  12    -0.115664793434E+04    0.26102E-03   -0.28247E-04  2202   0.354E-02    0.306E-01
RMM:  13    -0.115664810168E+04   -0.16735E-03   -0.20189E-04  2076   0.314E-02    0.140E-01
RMM:  14    -0.115664831086E+04   -0.20918E-03   -0.12228E-04  2035   0.249E-02    0.212E-01
RMM:  15    -0.115664822532E+04    0.85543E-04   -0.66079E-05  1849   0.178E-02    0.794E-02
RMM:  16    -0.115664827572E+04   -0.50399E-04   -0.27398E-05  1703   0.115E-02    0.567E-02
RMM:  17    -0.115664829603E+04   -0.20310E-04   -0.12003E-05  1522   0.818E-03    0.390E-02
RMM:  18    -0.115664831167E+04   -0.15643E-04   -0.74465E-06  1451   0.629E-03    0.393E-02
RMM:  19    -0.115664831498E+04   -0.33126E-05   -0.39580E-06  1368   0.470E-03    0.184E-02
RMM:  20    -0.115664832527E+04   -0.10284E-04   -0.23116E-06  1316   0.348E-03    0.167E-02
RMM:  21    -0.115664833646E+04   -0.11186E-04   -0.18534E-06  1269   0.300E-03    0.158E-02
RMM:  22    -0.115664835045E+04   -0.13991E-04   -0.15701E-06  1269   0.273E-03    0.105E-02
RMM:  23    -0.115664836053E+04   -0.10085E-04   -0.10371E-06  1219   0.223E-03    0.101E-02
RMM:  24    -0.115664836884E+04   -0.83099E-05   -0.72243E-07  1182   0.175E-03    0.554E-03
RMM:  25    -0.115664837632E+04   -0.74828E-05   -0.49418E-07  1116   0.145E-03    0.454E-03
RMM:  26    -0.115664838395E+04   -0.76313E-05   -0.48410E-07  1093   0.122E-03    0.459E-03
RMM:  27    -0.115664838998E+04   -0.60258E-05   -0.44573E-07  1086   0.132E-03    0.558E-03
RMM:  28    -0.115664839595E+04   -0.59668E-05   -0.40566E-07  1096   0.104E-03    0.190E-03
RMM:  29    -0.115664840027E+04   -0.43182E-05   -0.31705E-07  1022   0.930E-04    0.312E-03
RMM:  30    -0.115664840359E+04   -0.33233E-05   -0.26527E-07  1000   0.801E-04    0.193E-03
RMM:  31    -0.115664840695E+04   -0.33638E-05   -0.23698E-07   978   0.728E-04    0.111E-03
RMM:  32    -0.115664841007E+04   -0.31167E-05   -0.22418E-07   968   0.661E-04    0.105E-03
RMM:  33    -0.115664841242E+04   -0.23539E-05   -0.19504E-07   950   0.619E-04    0.645E-04
RMM:  34    -0.115664841446E+04   -0.20362E-05   -0.17610E-07   945   0.557E-04    0.570E-04
RMM:  35    -0.115664841611E+04   -0.16461E-05   -0.15224E-07   891   0.536E-04    0.392E-04
RMM:  36    -0.115664841748E+04   -0.13762E-05   -0.13777E-07   878   0.499E-04    0.611E-04
RMM:  37    -0.115664841852E+04   -0.10342E-05   -0.11776E-07   848   0.486E-04    0.294E-04
RMM:  38    -0.115664841920E+04   -0.68043E-06   -0.98890E-08   816   0.449E-04
  16 F= -.11650370E+04 E0= -.11650254E+04  d E =-.168950E-01  mag=    14.7818
 curvature:  -0.64 expect dE=-0.383E-01 dE for cont linesearch -0.477E-04
 trial: gam= 0.37811 g(F)=  0.582E-01 g(S)=  0.131E-02 ort =-0.848E-02 (trialstep = 0.114E+00)
 search vector abs. value=  0.192E+00
 bond charge predicted
       N       E                     dE             d eps       ncg     rms          rms(c)
DAV:   1    -0.115665127244E+04   -0.28539E-02   -0.74296E-01  2112   0.166E+00    0.315E-01
RMM:   2    -0.115665289480E+04   -0.16224E-02   -0.12591E-02  2314   0.243E-01    0.484E-01
RMM:   3    -0.115665457544E+04   -0.16806E-02   -0.35094E-03  2352   0.123E-01    0.882E-01
RMM:   4    -0.115665307484E+04    0.15006E-02   -0.14184E-03  2414   0.810E-02    0.460E-01
RMM:   5    -0.115665290017E+04    0.17467E-03   -0.43558E-04  2219   0.451E-02    0.255E-01
RMM:   6    -0.115665310476E+04   -0.20459E-03   -0.20138E-04  2124   0.255E-02    0.393E-01
RMM:   7    -0.115665300466E+04    0.10009E-03   -0.23479E-04  2172   0.315E-02    0.171E-01
RMM:   8    -0.115665309206E+04   -0.87394E-04   -0.15450E-04  2146   0.276E-02    0.193E-01
RMM:   9    -0.115665308608E+04    0.59723E-05   -0.10957E-04  1972   0.192E-02    0.199E-01
RMM:  10    -0.115665305870E+04    0.27384E-04   -0.76753E-05  1918   0.180E-02    0.115E-01
RMM:  11    -0.115665305393E+04    0.47678E-05   -0.44053E-05  1803   0.152E-02    0.630E-02
RMM:  12    -0.115665307472E+04   -0.20791E-04   -0.20803E-05  1600   0.981E-03    0.763E-02
RMM:  13    -0.115665306587E+04    0.88536E-05   -0.11729E-05  1499   0.825E-03    0.643E-02
RMM:  14    -0.115665306539E+04    0.47545E-06   -0.48825E-06  1392   0.530E-03
  17 F= -.11650427E+04 E0= -.11650310E+04  d E =-.567772E-02  mag=    14.7824
 ZBRENT: can't locate minimum, use default step
 trial-energy change:   -0.005678  1 .order   -0.005720   -0.006427   -0.005013
 step:   0.4562(harm=  0.5184)  dis= 0.01308  next Energy= -1165.051630 (dE=-0.146E-01)
 bond charge predicted
       N       E                     dE             d eps       ncg     rms          rms(c)
DAV:   1    -0.115664185696E+04    0.11209E-01   -0.66835E+00  1992   0.498E+00    0.944E-01
RMM:   2    -0.115665783748E+04   -0.15981E-01   -0.11632E-01  2322   0.734E-01    0.155E+00
RMM:   3    -0.115666902788E+04   -0.11190E-01   -0.32083E-02  2378   0.361E-01    0.200E+00
RMM:   4    -0.115667702259E+04   -0.79947E-02   -0.14961E-02  2419   0.236E-01    0.503E+00
RMM:   5    -0.115665171761E+04    0.25305E-01   -0.11847E-02  2185   0.213E-01    0.115E+00
RMM:   6    -0.115665703547E+04   -0.53179E-02   -0.62049E-03  2125   0.172E-01    0.789E-01
RMM:   7    -0.115665920275E+04   -0.21673E-02   -0.23952E-03  2275   0.959E-02    0.103E+00
RMM:   8    -0.115665803076E+04    0.11720E-02   -0.15096E-03  2259   0.837E-02    0.539E-01
RMM:   9    -0.115665892800E+04   -0.89724E-03   -0.11380E-03  2263   0.611E-02    0.705E-01
RMM:  10    -0.115665846905E+04    0.45894E-03   -0.82980E-04  2291   0.501E-02    0.449E-01
RMM:  11    -0.115665841633E+04    0.52722E-04   -0.71178E-04  2172   0.544E-02    0.298E-01
RMM:  12    -0.115665846001E+04   -0.43679E-04   -0.31993E-04  2133   0.372E-02    0.320E-01
RMM:  13    -0.115665841429E+04    0.45721E-04   -0.27254E-04  2078   0.375E-02    0.215E-01
RMM:  14    -0.115665842492E+04   -0.10631E-04   -0.81738E-05  1996   0.199E-02    0.107E-01
RMM:  15    -0.115665847299E+04   -0.48072E-04   -0.51443E-05  1794   0.159E-02    0.995E-02
RMM:  16    -0.115665848007E+04   -0.70780E-05   -0.18159E-05  1606   0.986E-03    0.517E-02
RMM:  17    -0.115665850252E+04   -0.22446E-04   -0.11419E-05  1511   0.786E-03    0.405E-02
RMM:  18    -0.115665852101E+04   -0.18499E-04   -0.54332E-06  1427   0.549E-03    0.235E-02
RMM:  19    -0.115665853222E+04   -0.11201E-04   -0.32877E-06  1351   0.415E-03    0.169E-02
RMM:  20    -0.115665854672E+04   -0.14506E-04   -0.21167E-06  1323   0.344E-03    0.196E-02
RMM:  21    -0.115665856089E+04   -0.14171E-04   -0.15756E-06  1272   0.278E-03    0.221E-02
RMM:  22    -0.115665856872E+04   -0.78237E-05   -0.11964E-06  1233   0.236E-03    0.156E-02
RMM:  23    -0.115665858059E+04   -0.11877E-04   -0.72203E-07  1183   0.180E-03    0.870E-03
RMM:  24    -0.115665859092E+04   -0.10323E-04   -0.66214E-07  1168   0.166E-03    0.645E-03
RMM:  25    -0.115665860028E+04   -0.93664E-05   -0.57196E-07  1129   0.154E-03    0.616E-03
RMM:  26    -0.115665861076E+04   -0.10482E-04   -0.53820E-07  1129   0.126E-03    0.391E-03
RMM:  27    -0.115665861785E+04   -0.70841E-05   -0.50125E-07  1089   0.132E-03    0.491E-03
RMM:  28    -0.115665862386E+04   -0.60121E-05   -0.41385E-07  1044   0.110E-03    0.301E-03
RMM:  29    -0.115665862820E+04   -0.43403E-05   -0.31351E-07  1030   0.901E-04    0.188E-03
RMM:  30    -0.115665863161E+04   -0.34068E-05   -0.26372E-07   978   0.816E-04    0.276E-03
RMM:  31    -0.115665863704E+04   -0.54349E-05   -0.30691E-07  1031   0.729E-04    0.114E-03
RMM:  32    -0.115665864039E+04   -0.33479E-05   -0.24540E-07   967   0.709E-04    0.151E-03
RMM:  33    -0.115665864270E+04   -0.23081E-05   -0.21363E-07   927   0.603E-04    0.824E-04
RMM:  34    -0.115665864492E+04   -0.22177E-05   -0.18792E-07   913   0.601E-04    0.817E-04
RMM:  35    -0.115665864684E+04   -0.19208E-05   -0.17979E-07   902   0.556E-04    0.500E-04
RMM:  36    -0.115665864830E+04   -0.14663E-05   -0.15764E-07   917   0.553E-04    0.646E-04
RMM:  37    -0.115665864932E+04   -0.10164E-05   -0.13493E-07   849   0.498E-04    0.545E-04
RMM:  38    -0.115665864994E+04   -0.62464E-06   -0.10682E-07   825   0.481E-04
  18 F= -.11650514E+04 E0= -.11650397E+04  d E =-.143542E-01  mag=    14.7889
 curvature:  -0.86 expect dE=-0.466E-01 dE for cont linesearch -0.205E-03
 trial: gam= 0.71159 g(F)=  0.529E-01 g(S)=  0.122E-02 ort = 0.675E-02 (trialstep = 0.182E+00)
 search vector abs. value=  0.161E+00
 bond charge predicted
       N       E                     dE             d eps       ncg     rms          rms(c)
DAV:   1    -0.115666189244E+04   -0.32431E-02   -0.14699E+00  2076   0.240E+00    0.430E-01
RMM:   2    -0.115666574376E+04   -0.38513E-02   -0.29196E-02  2350   0.364E-01    0.663E-01
RMM:   3    -0.115666807410E+04   -0.23303E-02   -0.73691E-03  2312   0.192E-01    0.120E+00
RMM:   4    -0.115666635735E+04    0.17168E-02   -0.31102E-03  2420   0.118E-01    0.928E-01
RMM:   5    -0.115666536435E+04    0.99300E-03   -0.12461E-03  2256   0.700E-02    0.728E-01
RMM:   6    -0.115666511152E+04    0.25283E-03   -0.94724E-04  2137   0.597E-02    0.291E-01
RMM:   7    -0.115666546391E+04   -0.35239E-03   -0.60407E-04  2198   0.487E-02    0.355E-01
RMM:   8    -0.115666536712E+04    0.96785E-04   -0.38628E-04  2244   0.388E-02    0.355E-01
RMM:   9    -0.115666527200E+04    0.95125E-04   -0.34300E-04  2208   0.396E-02    0.284E-01
RMM:  10    -0.115666525982E+04    0.12176E-04   -0.25431E-04  2128   0.322E-02    0.239E-01
RMM:  11    -0.115666521775E+04    0.42073E-04   -0.14231E-04  2044   0.273E-02    0.213E-01
RMM:  12    -0.115666521265E+04    0.50989E-05   -0.64965E-05  1845   0.181E-02    0.217E-01
RMM:  13    -0.115666515600E+04    0.56652E-04   -0.20358E-05  1600   0.987E-03    0.115E-01
RMM:  14    -0.115666518221E+04   -0.26210E-04   -0.91829E-06  1466   0.699E-03    0.532E-02
RMM:  15    -0.115666521348E+04   -0.31272E-04   -0.64938E-06  1456   0.584E-03    0.376E-02
RMM:  16    -0.115666522819E+04   -0.14716E-04   -0.57322E-06  1417   0.558E-03    0.418E-02
RMM:  17    -0.115666522506E+04    0.31371E-05   -0.20472E-06  1299   0.355E-03    0.195E-02
RMM:  18    -0.115666523028E+04   -0.52242E-05   -0.12545E-06  1248   0.266E-03    0.149E-02
RMM:  19    -0.115666523480E+04   -0.45241E-05   -0.98655E-07  1207   0.234E-03    0.195E-02
RMM:  20    -0.115666523665E+04   -0.18408E-05   -0.61548E-07  1150   0.186E-03    0.107E-02
RMM:  21    -0.115666523961E+04   -0.29612E-05   -0.37835E-07  1110   0.145E-03    0.412E-03
RMM:  22    -0.115666524289E+04   -0.32872E-05   -0.27561E-07  1069   0.117E-03    0.652E-03
RMM:  23    -0.115666524637E+04   -0.34724E-05   -0.25648E-07  1124   0.990E-04    0.526E-03
RMM:  24    -0.115666524833E+04   -0.19670E-05   -0.19804E-07  1017   0.931E-04    0.502E-03
RMM:  25    -0.115666525049E+04   -0.21517E-05   -0.17020E-07   999   0.751E-04    0.486E-03
RMM:  26    -0.115666525238E+04   -0.18957E-05   -0.13619E-07   947   0.613E-04    0.223E-03
RMM:  27    -0.115666525351E+04   -0.11245E-05   -0.10266E-07   892   0.549E-04    0.185E-03
RMM:  28    -0.115666525435E+04   -0.84440E-06   -0.84209E-08   890   0.517E-04
  19 F= -.11650589E+04 E0= -.11650471E+04  d E =-.748097E-02  mag=    14.7918
 trial-energy change:   -0.007481  1 .order   -0.007512   -0.010752   -0.004271
 step:   0.3088(harm=  0.3028)  dis= 0.00645  next Energy= -1165.060329 (dE=-0.895E-02)
 bond charge predicted
       N       E                     dE             d eps       ncg     rms          rms(c)
DAV:   1    -0.115666445036E+04    0.80315E-03   -0.70421E-01  2010   0.166E+00    0.296E-01
RMM:   2    -0.115666626537E+04   -0.18150E-02   -0.13980E-02  2353   0.252E-01    0.459E-01
RMM:   3    -0.115666751764E+04   -0.12523E-02   -0.34807E-03  2305   0.133E-01    0.961E-01
RMM:   4    -0.115666712176E+04    0.39588E-03   -0.17266E-03  2408   0.853E-02    0.968E-01
RMM:   5    -0.115666580394E+04    0.13178E-02   -0.96235E-04  2171   0.590E-02    0.345E-01
RMM:   6    -0.115666604509E+04   -0.24115E-03   -0.54237E-04  2099   0.479E-02    0.180E-01
RMM:   7    -0.115666610805E+04   -0.62960E-04   -0.24831E-04  2213   0.312E-02    0.205E-01
RMM:   8    -0.115666608823E+04    0.19822E-04   -0.18587E-04  2188   0.282E-02    0.220E-01
RMM:   9    -0.115666605034E+04    0.37882E-04   -0.13959E-04  2049   0.238E-02    0.172E-01
RMM:  10    -0.115666609096E+04   -0.40619E-04   -0.12845E-04  2021   0.229E-02    0.194E-01
RMM:  11    -0.115666601303E+04    0.77937E-04   -0.64537E-05  1861   0.185E-02    0.632E-02
RMM:  12    -0.115666603781E+04   -0.24784E-04   -0.21538E-05  1614   0.102E-02    0.637E-02
RMM:  13    -0.115666603520E+04    0.26127E-05   -0.83187E-06  1448   0.636E-03    0.324E-02
RMM:  14    -0.115666603932E+04   -0.41270E-05   -0.42087E-06  1389   0.502E-03    0.177E-02
RMM:  15    -0.115666604390E+04   -0.45785E-05   -0.16361E-06  1297   0.310E-03    0.127E-02
RMM:  16    -0.115666604548E+04   -0.15779E-05   -0.12241E-06  1239   0.262E-03    0.117E-02
RMM:  17    -0.115666604746E+04   -0.19833E-05   -0.72758E-07  1193   0.203E-03    0.113E-02
RMM:  18    -0.115666604889E+04   -0.14311E-05   -0.54448E-07  1155   0.175E-03    0.987E-03
RMM:  19    -0.115666605078E+04   -0.18877E-05   -0.37861E-07  1106   0.142E-03    0.558E-03
RMM:  20    -0.115666605293E+04   -0.21520E-05   -0.29925E-07  1061   0.133E-03    0.883E-03
RMM:  21    -0.115666605455E+04   -0.16138E-05   -0.17537E-07  1054   0.924E-04    0.579E-03
RMM:  22    -0.115666605620E+04   -0.16503E-05   -0.12418E-07  1021   0.735E-04    0.229E-03
RMM:  23    -0.115666605824E+04   -0.20398E-05   -0.12826E-07   972   0.714E-04    0.505E-03
RMM:  24    -0.115666605936E+04   -0.11231E-05   -0.10584E-07   960   0.672E-04    0.202E-03
RMM:  25    -0.115666606086E+04   -0.14999E-05   -0.93226E-08   882   0.545E-04    0.293E-03
RMM:  26    -0.115666606149E+04   -0.63234E-06   -0.68595E-08   859   0.524E-04
  20 F= -.11650603E+04 E0= -.11650485E+04  d E =-.889241E-02  mag=    14.7940
 curvature:  -0.41 expect dE=-0.258E-01 dE for cont linesearch -0.172E-05
 trial: gam= 1.32246 g(F)=  0.620E-01 g(S)=  0.559E-03 ort =-0.820E-03 (trialstep = 0.978E-01)
 search vector abs. value=  0.342E+00
 bond charge predicted
       N       E                     dE             d eps       ncg     rms          rms(c)
DAV:   1    -0.115666844344E+04   -0.23826E-02   -0.87041E-01  1998   0.186E+00    0.321E-01
RMM:   2    -0.115667048908E+04   -0.20456E-02   -0.16466E-02  2332   0.275E-01    0.532E-01
RMM:   3    -0.115667223634E+04   -0.17473E-02   -0.39479E-03  2317   0.138E-01    0.103E+00
RMM:   4    -0.115667158521E+04    0.65113E-03   -0.19959E-03  2438   0.867E-02    0.123E+00
RMM:   5    -0.115666986460E+04    0.17206E-02   -0.11810E-03  2205   0.663E-02    0.322E-01
[...]
RMM:   8    -0.115702972255E+04    0.88860E-05   -0.27451E-05  1776   0.112E-02    0.464E-02
RMM:   9    -0.115702973527E+04   -0.12722E-04   -0.21628E-05  1688   0.963E-03    0.668E-02
RMM:  10    -0.115702972612E+04    0.91490E-05   -0.12098E-05  1466   0.791E-03    0.336E-02
RMM:  11    -0.115702972613E+04   -0.63592E-08   -0.45099E-06  1396   0.516E-03
 258 F= -.11655470E+04 E0= -.11655404E+04  d E =-.628124E-03  mag=    14.8070
 trial-energy change:   -0.000628  1 .order   -0.000622   -0.000779   -0.000464
 step:   0.2430(harm=  0.2784)  dis= 0.00265  next Energy= -1165.547317 (dE=-0.908E-03)
 bond charge predicted
       N       E                     dE             d eps       ncg     rms          rms(c)
DAV:   1    -0.115702974960E+04   -0.23476E-04   -0.19069E-01  1998   0.932E-01    0.130E-01
RMM:   2    -0.115703022449E+04   -0.47489E-03   -0.42127E-03  2341   0.135E-01    0.220E-01
RMM:   3    -0.115703054118E+04   -0.31669E-03   -0.78510E-04  2295   0.631E-02    0.432E-01
RMM:   4    -0.115703021261E+04    0.32857E-03   -0.30120E-04  2431   0.340E-02    0.139E-01
RMM:   5    -0.115703020032E+04    0.12289E-04   -0.94745E-05  2023   0.204E-02    0.114E-01
RMM:   6    -0.115703022745E+04   -0.27136E-04   -0.56594E-05  1864   0.134E-02    0.152E-01
RMM:   7    -0.115703019838E+04    0.29069E-04   -0.46897E-05  1866   0.138E-02    0.770E-02
RMM:   8    -0.115703019815E+04    0.22855E-06   -0.34356E-05  1872   0.126E-02    0.347E-02
RMM:   9    -0.115703021123E+04   -0.13079E-04   -0.19444E-05  1693   0.945E-03    0.546E-02
RMM:  10    -0.115703020227E+04    0.89631E-05   -0.10328E-05  1456   0.737E-03    0.239E-02
RMM:  11    -0.115703020374E+04   -0.14738E-05   -0.40969E-06  1382   0.473E-03    0.178E-02
RMM:  12    -0.115703020411E+04   -0.36592E-06   -0.18116E-06  1267   0.322E-03
 259 F= -.11655473E+04 E0= -.11655409E+04  d E =-.940069E-03  mag=    14.8075
 curvature:  -0.90 expect dE=-0.523E-02 dE for cont linesearch -0.952E-05
 trial: gam= 0.90745 g(F)=  0.580E-02 g(S)=  0.274E-04 ort = 0.704E-03 (trialstep = 0.139E+00)
 search vector abs. value=  0.456E-01
 bond charge predicted
       N       E                     dE             d eps       ncg     rms          rms(c)
DAV:   1    -0.115703049284E+04   -0.28909E-03   -0.20646E-01  2016   0.976E-01    0.129E-01
RMM:   2    -0.115703098370E+04   -0.49086E-03   -0.45500E-03  2363   0.141E-01    0.213E-01
RMM:   3    -0.115703134499E+04   -0.36129E-03   -0.80777E-04  2345   0.628E-02    0.454E-01
RMM:   4    -0.115703099103E+04    0.35396E-03   -0.29995E-04  2441   0.349E-02    0.186E-01
RMM:   5    -0.115703096904E+04    0.21989E-04   -0.90894E-05  1964   0.182E-02    0.109E-01
RMM:   6    -0.115703099804E+04   -0.29000E-04   -0.57378E-05  1897   0.152E-02    0.122E-01
RMM:   7    -0.115703097997E+04    0.18072E-04   -0.35314E-05  1895   0.126E-02    0.557E-02
RMM:   8    -0.115703099512E+04   -0.15152E-04   -0.41253E-05  1849   0.135E-02    0.670E-02
RMM:   9    -0.115703099228E+04    0.28463E-05   -0.31179E-05  1761   0.114E-02    0.589E-02
RMM:  10    -0.115703098727E+04    0.50030E-05   -0.14791E-05  1542   0.878E-03    0.353E-02
RMM:  11    -0.115703098567E+04    0.16006E-05   -0.52232E-06  1408   0.542E-03    0.182E-02
RMM:  12    -0.115703098674E+04   -0.10697E-05   -0.17056E-06  1298   0.331E-03    0.130E-02
RMM:  13    -0.115703098715E+04   -0.40243E-06   -0.88881E-07  1202   0.232E-03
 260 F= -.11655481E+04 E0= -.11655415E+04  d E =-.701588E-03  mag=    14.8080
 trial-energy change:   -0.000702  1 .order   -0.000701   -0.000896   -0.000506
 step:   0.3179(harm=  0.3179)  dis= 0.00300  next Energy= -1165.548377 (dE=-0.103E-02)
 bond charge predicted
       N       E                     dE             d eps       ncg     rms          rms(c)
DAV:   1    -0.115703060124E+04    0.38551E-03   -0.34578E-01  1992   0.126E+00    0.167E-01
RMM:   2    -0.115703147714E+04   -0.87591E-03   -0.76384E-03  2355   0.183E-01    0.320E-01
RMM:   3    -0.115703196461E+04   -0.48746E-03   -0.13497E-03  2342   0.817E-02    0.565E-01
RMM:   4    -0.115703148709E+04    0.47752E-03   -0.52371E-04  2468   0.464E-02    0.308E-01
RMM:   5    -0.115703139113E+04    0.95963E-04   -0.17691E-04  2098   0.268E-02    0.131E-01
RMM:   6    -0.115703143418E+04   -0.43057E-04   -0.10121E-04  2012   0.204E-02    0.124E-01
RMM:   7    -0.115703141264E+04    0.21548E-04   -0.55153E-05  2064   0.158E-02    0.742E-02
RMM:   8    -0.115703143712E+04   -0.24481E-04   -0.57900E-05  1956   0.161E-02    0.106E-01
RMM:   9    -0.115703142484E+04    0.12278E-04   -0.44258E-05  1857   0.139E-02    0.647E-02
RMM:  10    -0.115703142333E+04    0.15048E-05   -0.22983E-05  1696   0.111E-02    0.445E-02
RMM:  11    -0.115703142110E+04    0.22313E-05   -0.80701E-06  1433   0.659E-03    0.307E-02
RMM:  12    -0.115703142098E+04    0.12494E-06   -0.33979E-06  1369   0.439E-03
 261 F= -.11655484E+04 E0= -.11655418E+04  d E =-.102639E-02  mag=    14.8082
 curvature:  -1.12 expect dE=-0.612E-02 dE for cont linesearch -0.641E-08
 trial: gam= 1.06235 g(F)=  0.542E-02 g(S)=  0.372E-04 ort = 0.162E-04 (trialstep = 0.140E+00)
 search vector abs. value=  0.570E-01
 bond charge predicted
       N       E                     dE             d eps       ncg     rms          rms(c)
DAV:   1    -0.115703149066E+04   -0.69554E-04   -0.26261E-01  2004   0.110E+00    0.140E-01
RMM:   2    -0.115703217510E+04   -0.68444E-03   -0.56390E-03  2348   0.157E-01    0.305E-01
RMM:   3    -0.115703240067E+04   -0.22557E-03   -0.97530E-04  2350   0.683E-02    0.430E-01
RMM:   4    -0.115703216171E+04    0.23896E-03   -0.34303E-04  2456   0.373E-02    0.246E-01
RMM:   5    -0.115703207973E+04    0.81979E-04   -0.10940E-04  1978   0.201E-02    0.105E-01
RMM:   6    -0.115703211400E+04   -0.34269E-04   -0.68878E-05  1890   0.172E-02    0.880E-02
RMM:   7    -0.115703210771E+04    0.62895E-05   -0.39672E-05  1948   0.130E-02    0.683E-02
RMM:   8    -0.115703211406E+04   -0.63529E-05   -0.33094E-05  1858   0.124E-02    0.699E-02
RMM:   9    -0.115703212008E+04   -0.60215E-05   -0.30155E-05  1776   0.112E-02    0.672E-02
RMM:  10    -0.115703211333E+04    0.67592E-05   -0.18059E-05  1578   0.987E-03    0.347E-02
RMM:  11    -0.115703211340E+04   -0.77191E-07   -0.56185E-06  1406   0.553E-03
 262 F= -.11655490E+04 E0= -.11655424E+04  d E =-.624879E-03  mag=    14.8082
 ZBRENT: can't locate minimum, use default step
 trial-energy change:   -0.000625  1 .order   -0.000630   -0.000765   -0.000494
 step:   0.5587(harm=  0.3942)  dis= 0.00589  next Energy= -1165.549640 (dE=-0.126E-02)
 bond charge predicted
       N       E                     dE             d eps       ncg     rms          rms(c)
DAV:   1    -0.115702694026E+04    0.51731E-02   -0.23637E+00  1992   0.331E+00    0.418E-01
RMM:   2    -0.115703344039E+04   -0.65001E-02   -0.50636E-02  2335   0.472E-01    0.972E-01
RMM:   3    -0.115703498138E+04   -0.15410E-02   -0.87417E-03  2339   0.207E-01    0.122E+00
RMM:   4    -0.115703316983E+04    0.18116E-02   -0.30684E-03  2496   0.114E-01    0.797E-01
RMM:   5    -0.115703237942E+04    0.79040E-03   -0.10069E-03  2264   0.629E-02    0.315E-01
RMM:   6    -0.115703260381E+04   -0.22439E-03   -0.68385E-04  2215   0.529E-02    0.270E-01
RMM:   7    -0.115703249557E+04    0.10824E-03   -0.35055E-04  2286   0.390E-02    0.205E-01
RMM:   8    -0.115703250622E+04   -0.10646E-04   -0.31016E-04  2258   0.382E-02    0.183E-01
RMM:   9    -0.115703260636E+04   -0.10014E-03   -0.26451E-04  2224   0.324E-02    0.243E-01
RMM:  10    -0.115703249566E+04    0.11069E-03   -0.16686E-04  2124   0.279E-02    0.142E-01
RMM:  11    -0.115703248031E+04    0.15357E-04   -0.57639E-05  1833   0.163E-02    0.797E-02
RMM:  12    -0.115703248210E+04   -0.17880E-05   -0.18664E-05  1561   0.936E-03    0.512E-02
RMM:  13    -0.115703248480E+04   -0.27030E-05   -0.82528E-06  1439   0.657E-03    0.236E-02
RMM:  14    -0.115703248977E+04   -0.49701E-05   -0.41991E-06  1404   0.487E-03    0.220E-02
RMM:  15    -0.115703249285E+04   -0.30774E-05   -0.19820E-06  1302   0.345E-03    0.163E-02
RMM:  16    -0.115703249553E+04   -0.26810E-05   -0.14294E-06  1282   0.281E-03    0.118E-02
RMM:  17    -0.115703249869E+04   -0.31680E-05   -0.99099E-07  1225   0.236E-03    0.105E-02
RMM:  18    -0.115703250063E+04   -0.19365E-05   -0.59872E-07  1167   0.189E-03    0.668E-03
RMM:  19    -0.115703250345E+04   -0.28161E-05   -0.30895E-07  1093   0.128E-03    0.460E-03
RMM:  20    -0.115703250629E+04   -0.28389E-05   -0.26537E-07  1085   0.113E-03    0.553E-03
RMM:  21    -0.115703250855E+04   -0.22686E-05   -0.23145E-07  1055   0.106E-03    0.332E-03
RMM:  22    -0.115703251064E+04   -0.20806E-05   -0.15380E-07  1024   0.798E-04    0.236E-03
RMM:  23    -0.115703251263E+04   -0.19932E-05   -0.12439E-07   946   0.633E-04    0.209E-03
RMM:  24    -0.115703251401E+04   -0.13855E-05   -0.10211E-07   887   0.580E-04    0.116E-03
RMM:  25    -0.115703251511E+04   -0.10966E-05   -0.79959E-08   835   0.504E-04    0.716E-04
RMM:  26    -0.115703251606E+04   -0.94449E-06   -0.72185E-08   856   0.454E-04
 263 F= -.11655492E+04 E0= -.11655427E+04  d E =-.821078E-03  mag=    14.8086
 curvature:  -1.19 expect dE=-0.247E-01 dE for cont linesearch -0.137E-03
 ZBRENT: interpolating
 opt :   0.3830  next Energy= -1165.549421 (dE=-0.105E-02)
 bond charge predicted
       N       E                     dE             d eps       ncg     rms          rms(c)
DAV:   1    -0.115703167622E+04    0.83889E-03   -0.41551E-01  2022   0.139E+00    0.176E-01
RMM:   2    -0.115703279328E+04   -0.11171E-02   -0.89288E-03  2338   0.198E-01    0.405E-01
RMM:   3    -0.115703308455E+04   -0.29127E-03   -0.15428E-03  2340   0.865E-02    0.544E-01
RMM:   4    -0.115703283100E+04    0.25355E-03   -0.57938E-04  2489   0.482E-02    0.381E-01
RMM:   5    -0.115703258571E+04    0.24529E-03   -0.21913E-04  2096   0.292E-02    0.103E-01
RMM:   6    -0.115703266503E+04   -0.79322E-04   -0.11574E-04  2033   0.223E-02    0.112E-01
RMM:   7    -0.115703264485E+04    0.20174E-04   -0.61577E-05  2103   0.160E-02    0.844E-02
RMM:   8    -0.115703265052E+04   -0.56658E-05   -0.53330E-05  1948   0.156E-02    0.627E-02
RMM:   9    -0.115703266517E+04   -0.14646E-04   -0.37327E-05  1858   0.129E-02    0.858E-02
RMM:  10    -0.115703264962E+04    0.15549E-04   -0.19606E-05  1576   0.978E-03    0.629E-02
RMM:  11    -0.115703264920E+04    0.41378E-06   -0.76143E-06  1441   0.628E-03
 264 F= -.11655494E+04 E0= -.11655430E+04  d E =-.104147E-02  mag=    14.8086
 curvature:  -1.96 expect dE=-0.192E-01 dE for cont linesearch -0.458E-06
 trial: gam= 1.64241 g(F)=  0.977E-02 g(S)=  0.984E-05 ort =-0.115E-03 (trialstep = 0.658E-01)
 search vector abs. value=  0.163E+00
 bond charge predicted
       N       E                     dE             d eps       ncg     rms          rms(c)
DAV:   1    -0.115703292691E+04   -0.27729E-03   -0.16555E-01  2088   0.873E-01    0.111E-01
RMM:   2    -0.115703339906E+04   -0.47215E-03   -0.35467E-03  2330   0.126E-01    0.304E-01
RMM:   3    -0.115703342173E+04   -0.22674E-04   -0.57432E-04  2323   0.553E-02    0.315E-01
RMM:   4    -0.115703345889E+04   -0.37162E-04   -0.31500E-04  2418   0.341E-02    0.314E-01
RMM:   5    -0.115703328063E+04    0.17826E-03   -0.13192E-04  1968   0.237E-02    0.102E-01
RMM:   6    -0.115703330349E+04   -0.22855E-04   -0.44115E-05  1797   0.139E-02    0.627E-02
RMM:   7    -0.115703331586E+04   -0.12371E-04   -0.24965E-05  1833   0.103E-02    0.724E-02
RMM:   8    -0.115703331382E+04    0.20421E-05   -0.19845E-05  1796   0.957E-03    0.560E-02
RMM:   9    -0.115703331555E+04   -0.17323E-05   -0.19043E-05  1681   0.937E-03    0.424E-02
RMM:  10    -0.115703331489E+04    0.65712E-06   -0.99968E-06  1489   0.727E-03
 265 F= -.11655500E+04 E0= -.11655434E+04  d E =-.573710E-03  mag=    14.8084
 ZBRENT: can't locate minimum, use default step
 trial-energy change:   -0.000574  1 .order   -0.000574   -0.000631   -0.000518
 step:   0.2632(harm=  0.3662)  dis= 0.00459  next Energy= -1165.551173 (dE=-0.176E-02)
 bond charge predicted
       N       E                     dE             d eps       ncg     rms          rms(c)
DAV:   1    -0.115703093251E+04    0.23830E-02   -0.14881E+00  1992   0.262E+00    0.333E-01
RMM:   2    -0.115703524183E+04   -0.43093E-02   -0.31820E-02  2322   0.375E-01    0.843E-01
RMM:   3    -0.115703563096E+04   -0.38913E-03   -0.55237E-03  2348   0.161E-01    0.873E-01
RMM:   4    -0.115703452441E+04    0.11065E-02   -0.16679E-03  2500   0.822E-02    0.329E-01
RMM:   5    -0.115703442279E+04    0.10162E-03   -0.47203E-04  2262   0.436E-02    0.257E-01
RMM:   6    -0.115703452960E+04   -0.10681E-03   -0.26736E-04  2282   0.284E-02    0.372E-01
RMM:   7    -0.115703437952E+04    0.15008E-03   -0.23326E-04  2229   0.314E-02    0.156E-01
RMM:   8    -0.115703443411E+04   -0.54587E-04   -0.18903E-04  2230   0.296E-02    0.151E-01
RMM:   9    -0.115703448069E+04   -0.46580E-04   -0.16285E-04  2178   0.265E-02    0.165E-01
RMM:  10    -0.115703442984E+04    0.50854E-04   -0.97257E-05  2031   0.214E-02    0.103E-01
RMM:  11    -0.115703442002E+04    0.98120E-05   -0.33529E-05  1736   0.127E-02    0.651E-02

===================================================================================
=   BAD TERMINATION OF ONE OF YOUR APPLICATION PROCESSES
=   RANK 0 PID 6028 RUNNING AT b014
=   EXIT STATUS: 1
===================================================================================

===================================================================================
=   BAD TERMINATION OF ONE OF YOUR APPLICATION PROCESSES
=   RANK 1 PID 6029 RUNNING AT b014
=   EXIT STATUS: 1
===================================================================================

===================================================================================
=   BAD TERMINATION OF ONE OF YOUR APPLICATION PROCESSES
=   RANK 2 PID 6030 RUNNING AT b014
=   EXIT STATUS: 1
===================================================================================

===================================================================================
=   BAD TERMINATION OF ONE OF YOUR APPLICATION PROCESSES
=   RANK 3 PID 6031 RUNNING AT b014
=   EXIT STATUS: 1
===================================================================================

===================================================================================
=   BAD TERMINATION OF ONE OF YOUR APPLICATION PROCESSES
=   RANK 4 PID 6032 RUNNING AT b014
=   EXIT STATUS: 1
===================================================================================

===================================================================================
=   BAD TERMINATION OF ONE OF YOUR APPLICATION PROCESSES
=   RANK 5 PID 6033 RUNNING AT b014
=   EXIT STATUS: 1
===================================================================================

===================================================================================
=   BAD TERMINATION OF ONE OF YOUR APPLICATION PROCESSES
=   RANK 6 PID 6034 RUNNING AT b014
=   EXIT STATUS: 1
===================================================================================

===================================================================================
=   BAD TERMINATION OF ONE OF YOUR APPLICATION PROCESSES
=   RANK 7 PID 6035 RUNNING AT b014
=   EXIT STATUS: 1
===================================================================================

===================================================================================
=   BAD TERMINATION OF ONE OF YOUR APPLICATION PROCESSES
=   RANK 8 PID 6036 RUNNING AT b014
=   EXIT STATUS: 1
===================================================================================

===================================================================================
=   BAD TERMINATION OF ONE OF YOUR APPLICATION PROCESSES
=   RANK 9 PID 6037 RUNNING AT b014
=   EXIT STATUS: 1
===================================================================================

===================================================================================
=   BAD TERMINATION OF ONE OF YOUR APPLICATION PROCESSES
=   RANK 10 PID 6038 RUNNING AT b014
=   EXIT STATUS: 1
===================================================================================

===================================================================================
=   BAD TERMINATION OF ONE OF YOUR APPLICATION PROCESSES
=   RANK 11 PID 6039 RUNNING AT b014
=   EXIT STATUS: 1
===================================================================================

===================================================================================
=   BAD TERMINATION OF ONE OF YOUR APPLICATION PROCESSES
=   RANK 12 PID 6040 RUNNING AT b014
=   EXIT STATUS: 1
===================================================================================

===================================================================================
=   BAD TERMINATION OF ONE OF YOUR APPLICATION PROCESSES
=   RANK 13 PID 6041 RUNNING AT b014
=   EXIT STATUS: 1
===================================================================================

===================================================================================
=   BAD TERMINATION OF ONE OF YOUR APPLICATION PROCESSES
=   RANK 14 PID 6042 RUNNING AT b014
=   EXIT STATUS: 1
===================================================================================

===================================================================================
=   BAD TERMINATION OF ONE OF YOUR APPLICATION PROCESSES
=   RANK 15 PID 6043 RUNNING AT b014
=   EXIT STATUS: 1
===================================================================================

===================================================================================
=   BAD TERMINATION OF ONE OF YOUR APPLICATION PROCESSES
=   RANK 16 PID 6044 RUNNING AT b014
=   EXIT STATUS: 1
===================================================================================

===================================================================================
=   BAD TERMINATION OF ONE OF YOUR APPLICATION PROCESSES
=   RANK 17 PID 6045 RUNNING AT b014
=   EXIT STATUS: 1
===================================================================================

===================================================================================
=   BAD TERMINATION OF ONE OF YOUR APPLICATION PROCESSES
=   RANK 18 PID 6046 RUNNING AT b014
=   EXIT STATUS: 1
===================================================================================

===================================================================================
=   BAD TERMINATION OF ONE OF YOUR APPLICATION PROCESSES
=   RANK 19 PID 6047 RUNNING AT b014
=   EXIT STATUS: 1
===================================================================================

===================================================================================
=   BAD TERMINATION OF ONE OF YOUR APPLICATION PROCESSES
=   RANK 20 PID 6048 RUNNING AT b014
=   EXIT STATUS: 1
===================================================================================

===================================================================================
=   BAD TERMINATION OF ONE OF YOUR APPLICATION PROCESSES
=   RANK 21 PID 6049 RUNNING AT b014
=   EXIT STATUS: 1
===================================================================================

===================================================================================
=   BAD TERMINATION OF ONE OF YOUR APPLICATION PROCESSES
=   RANK 22 PID 6050 RUNNING AT b014
=   EXIT STATUS: 1
===================================================================================

===================================================================================
=   BAD TERMINATION OF ONE OF YOUR APPLICATION PROCESSES
=   RANK 23 PID 6051 RUNNING AT b014
=   EXIT STATUS: 1
===================================================================================
