       N       E                     dE             d eps       ncg     rms          rms(c)
DAV:   1     0.910461481352E+04    0.91046E+04   -0.34530E+05  1992   0.140E+03
DAV:   2     0.842392687016E+03   -0.82622E+04   -0.74414E+04  2256   0.457E+02
DAV:   3    -0.115460733436E+04   -0.19970E+04   -0.18977E+04  3300   0.223E+02
DAV:   4    -0.130336652590E+04   -0.14876E+03   -0.13939E+03  3180   0.699E+01
DAV:   5    -0.131067811769E+04   -0.73116E+01   -0.68976E+01  3264   0.143E+01    0.174E+02
RMM:   6    -0.177508701128E+04   -0.46441E+03   -0.35247E+03  2601   0.142E+02    0.549E+02
RMM:   7    -0.158204920908E+04    0.19304E+03   -0.23289E+02  1992   0.435E+01    0.357E+02
RMM:   8    -0.120995126140E+04    0.37210E+03   -0.52945E+02  2138   0.496E+01    0.135E+02
RMM:   9    -0.124758918587E+04   -0.37638E+02   -0.25002E+02  2062   0.340E+01    0.177E+02
RMM:  10    -0.122389720391E+04    0.23692E+02   -0.11883E+02  2213   0.233E+01    0.156E+02
RMM:  11    -0.110046705661E+04    0.12343E+03   -0.14567E+02  2046   0.267E+01    0.995E+01
RMM:  12    -0.115749517104E+04   -0.57028E+02   -0.10571E+02  2021   0.250E+01    0.127E+02
RMM:  13    -0.109106973743E+04    0.66425E+02   -0.10922E+02  2025   0.251E+01    0.120E+02
RMM:  14    -0.105783033277E+04    0.33239E+02   -0.42316E+01  2160   0.144E+01    0.910E+01
RMM:  15    -0.104717145950E+04    0.10659E+02   -0.34073E+01  2042   0.137E+01    0.894E+01
RMM:  16    -0.102899396677E+04    0.18177E+02   -0.16042E+01  2119   0.862E+00    0.625E+01
RMM:  17    -0.102435381417E+04    0.46402E+01   -0.78169E+00  2107   0.599E+00    0.533E+01
RMM:  18    -0.102780795624E+04   -0.34541E+01   -0.68265E+00  2145   0.516E+00    0.522E+01
RMM:  19    -0.102484282608E+04    0.29651E+01   -0.38168E+00  2073   0.437E+00    0.341E+01
RMM:  20    -0.102822118219E+04   -0.33784E+01   -0.29536E+00  2175   0.346E+00    0.423E+01
RMM:  21    -0.102910659109E+04   -0.88541E+00   -0.21803E+00  2143   0.266E+00    0.318E+01
RMM:  22    -0.102983183312E+04   -0.72524E+00   -0.14606E+00  2100   0.251E+00    0.299E+01
RMM:  23    -0.103280519137E+04   -0.29734E+01   -0.13168E+00  2107   0.232E+00    0.259E+01
RMM:  24    -0.103475845716E+04   -0.19533E+01   -0.10215E+00  2118   0.199E+00    0.237E+01
RMM:  25    -0.103744391845E+04   -0.26855E+01   -0.98563E-01  2140   0.197E+00    0.248E+01
RMM:  26    -0.104140178752E+04   -0.39579E+01   -0.14343E+00  2093   0.232E+00    0.215E+01
RMM:  27    -0.104434028792E+04   -0.29385E+01   -0.13024E+00  2127   0.227E+00    0.249E+01
RMM:  28    -0.104617746009E+04   -0.18372E+01   -0.10838E+00  2156   0.208E+00    0.239E+01
RMM:  29    -0.104952425302E+04   -0.33468E+01   -0.16056E+00  2030   0.247E+00    0.281E+01
RMM:  30    -0.105101594752E+04   -0.14917E+01   -0.13886E+00  2191   0.235E+00    0.200E+01
RMM:  31    -0.105628039172E+04   -0.52644E+01   -0.21998E+00  2097   0.278E+00    0.207E+01
RMM:  32    -0.105793318318E+04   -0.16528E+01   -0.11180E+00  2202   0.201E+00    0.178E+01
RMM:  33    -0.105894447032E+04   -0.10113E+01   -0.60414E-01  2264   0.143E+00    0.130E+01
RMM:  34    -0.106097944045E+04   -0.20350E+01   -0.36701E-01  2283   0.964E-01    0.156E+01
RMM:  35    -0.106082040708E+04    0.15903E+00   -0.12126E-01  2154   0.665E-01    0.149E+01
RMM:  36    -0.106291840637E+04   -0.20980E+01   -0.49910E-01  2063   0.124E+00    0.218E+01
RMM:  37    -0.106319252954E+04   -0.27412E+00   -0.29522E-01  2216   0.101E+00    0.136E+01
RMM:  38    -0.106555742108E+04   -0.23649E+01   -0.84266E-01  2059   0.156E+00    0.133E+01
RMM:  39    -0.106688276453E+04   -0.13253E+01   -0.55585E-01  2200   0.133E+00    0.117E+01
RMM:  40    -0.106753077319E+04   -0.64801E+00   -0.17912E-01  2447   0.661E-01    0.116E+01
RMM:  41    -0.106751228723E+04    0.18486E-01   -0.36115E-02  2506   0.266E-01    0.114E+01
RMM:  42    -0.106885926085E+04   -0.13470E+01   -0.29556E-01  2014   0.845E-01    0.950E+00
RMM:  43    -0.106948902507E+04   -0.62976E+00   -0.20285E-01  2180   0.777E-01    0.906E+00
RMM:  44    -0.106943865637E+04    0.50369E-01   -0.41038E-02  2504   0.327E-01    0.929E+00
RMM:  45    -0.106946262273E+04   -0.23966E-01   -0.11838E-02  2514   0.163E-01    0.954E+00
RMM:  46    -0.106949999807E+04   -0.37375E-01   -0.12025E-02  2074   0.219E-01    0.105E+01
RMM:  47    -0.106950002206E+04   -0.23987E-04   -0.56649E-03  2305   0.145E-01    0.108E+01
RMM:  48    -0.106974195481E+04   -0.24193E+00   -0.38138E-02  2139   0.363E-01    0.135E+01
RMM:  49    -0.106979308142E+04   -0.51127E-01   -0.28983E-02  2079   0.435E-01    0.155E+01
RMM:  50    -0.106971389520E+04    0.79186E-01   -0.16446E-02  2096   0.320E-01    0.170E+01
RMM:  51    -0.107118008989E+04   -0.14662E+01   -0.27743E-01  2001   0.854E-01    0.212E+01
RMM:  52    -0.107088504410E+04    0.29505E+00   -0.46098E-02  2096   0.447E-01    0.193E+01
RMM:  53    -0.107083175579E+04    0.53288E-01   -0.46574E-02  2129   0.368E-01    0.168E+01
RMM:  54    -0.107100205747E+04   -0.17030E+00   -0.20585E-02  2177   0.259E-01    0.171E+01
RMM:  55    -0.107120340166E+04   -0.20134E+00   -0.26743E-02  2193   0.232E-01    0.170E+01
RMM:  56    -0.107193980142E+04   -0.73640E+00   -0.33639E-01  2128   0.108E+00    0.198E+01
RMM:  57    -0.107194627080E+04   -0.64694E-02   -0.10899E-01  2144   0.659E-01    0.174E+01
RMM:  58    -0.107191631971E+04    0.29951E-01   -0.85508E-02  2424   0.459E-01    0.149E+01
RMM:  59    -0.107188024239E+04    0.36077E-01   -0.77165E-02  2196   0.454E-01    0.134E+01
RMM:  60    -0.107184103420E+04    0.39208E-01   -0.56019E-02  2428   0.360E-01    0.127E+01
RMM:  61    -0.107153391609E+04    0.30712E+00   -0.21703E-01  2056   0.814E-01    0.146E+01
RMM:  62    -0.107186016052E+04   -0.32624E+00   -0.91458E-02  2029   0.606E-01    0.147E+01
RMM:  63    -0.107199265023E+04   -0.13249E+00   -0.40062E-02  2135   0.386E-01    0.142E+01
RMM:  64    -0.107198382725E+04    0.88230E-02   -0.90192E-03  2554   0.134E-01    0.141E+01
RMM:  65    -0.107200621513E+04   -0.22388E-01   -0.27671E-03  2131   0.107E-01    0.140E+01
RMM:  66    -0.107219591250E+04   -0.18970E+00   -0.11173E-01  2079   0.640E-01    0.142E+01
RMM:  67    -0.107237546375E+04   -0.17955E+00   -0.80539E-02  2052   0.606E-01    0.151E+01
RMM:  68    -0.107238182404E+04   -0.63603E-02   -0.20610E-02  2134   0.291E-01    0.151E+01
RMM:  69    -0.107236955406E+04    0.12270E-01   -0.53288E-03  2310   0.136E-01    0.148E+01
RMM:  70    -0.107230806120E+04    0.61493E-01   -0.69954E-03  2138   0.171E-01    0.138E+01
RMM:  71    -0.107215483539E+04    0.15323E+00   -0.16195E-01  2053   0.767E-01    0.158E+01
RMM:  72    -0.107217667655E+04   -0.21841E-01   -0.10439E-01  2073   0.684E-01    0.129E+01
RMM:  73    -0.107233509963E+04   -0.15842E+00   -0.35448E-02  2242   0.357E-01    0.131E+01
RMM:  74    -0.107239788542E+04   -0.62786E-01   -0.33752E-02  2258   0.333E-01    0.148E+01
RMM:  75    -0.107237609141E+04    0.21794E-01   -0.11048E-02  2383   0.185E-01    0.152E+01
RMM:  76    -0.107238639608E+04   -0.10305E-01   -0.13010E-02  2153   0.218E-01    0.153E+01
RMM:  77    -0.107236003526E+04    0.26361E-01   -0.62264E-03  2201   0.163E-01    0.137E+01
RMM:  78    -0.107247255155E+04   -0.11252E+00   -0.12852E-02  2094   0.234E-01    0.130E+01
RMM:  79    -0.107266135057E+04   -0.18880E+00   -0.34833E-02  2110   0.345E-01    0.106E+01
RMM:  80    -0.107269456242E+04   -0.33212E-01   -0.14154E-02  2131   0.274E-01    0.103E+01
RMM:  81    -0.107264144977E+04    0.53113E-01   -0.26299E-02  2084   0.336E-01    0.105E+01
RMM:  82    -0.107268214242E+04   -0.40693E-01   -0.18224E-02  2087   0.314E-01    0.968E+00
RMM:  83    -0.107268948552E+04   -0.73431E-02   -0.60759E-03  2215   0.177E-01    0.968E+00
RMM:  84    -0.107268876905E+04    0.71647E-03   -0.15236E-03  2359   0.697E-02    0.977E+00
RMM:  85    -0.107271439709E+04   -0.25628E-01   -0.32154E-03  2139   0.102E-01    0.102E+01
RMM:  86    -0.107329733804E+04   -0.58294E+00   -0.60805E-01  2119   0.146E+00    0.144E+01
RMM:  87    -0.107326528832E+04    0.32050E-01   -0.14554E-01  2114   0.831E-01    0.112E+01
RMM:  88    -0.107334826491E+04   -0.82977E-01   -0.59687E-02  2377   0.461E-01    0.103E+01
RMM:  89    -0.107344961598E+04   -0.10135E+00   -0.30075E-02  2203   0.327E-01    0.966E+00
RMM:  90    -0.107353858723E+04   -0.88971E-01   -0.18632E-02  2341   0.235E-01    0.914E+00
RMM:  91    -0.107351814689E+04    0.20440E-01   -0.98749E-02  2040   0.602E-01    0.911E+00
RMM:  92    -0.107359516580E+04   -0.77019E-01   -0.37386E-02  2121   0.403E-01    0.820E+00
RMM:  93    -0.107372627709E+04   -0.13111E+00   -0.40878E-02  2184   0.376E-01    0.743E+00
RMM:  94    -0.107377794832E+04   -0.51671E-01   -0.22417E-02  2361   0.271E-01    0.756E+00
RMM:  95    -0.107373927361E+04    0.38675E-01   -0.18687E-02  2328   0.244E-01    0.585E+00
RMM:  96    -0.107381052580E+04   -0.71252E-01   -0.15629E-02  2405   0.194E-01    0.340E+00
RMM:  97    -0.107385377032E+04   -0.43245E-01   -0.10060E-02  2086   0.230E-01    0.375E+00
RMM:  98    -0.107385566440E+04   -0.18941E-02   -0.26181E-03  2368   0.988E-02    0.411E+00
RMM:  99    -0.107387672304E+04   -0.21059E-01   -0.17297E-03  2210   0.833E-02    0.419E+00
RMM: 100    -0.107397904218E+04   -0.10232E+00   -0.11048E-02  2074   0.194E-01    0.331E+00
RMM: 101    -0.107414972121E+04   -0.17068E+00   -0.19254E-02  2246   0.241E-01    0.374E+00
RMM: 102    -0.107422137183E+04   -0.71651E-01   -0.97323E-03  2292   0.181E-01    0.330E+00
RMM: 103    -0.107429169081E+04   -0.70319E-01   -0.66845E-03  2259   0.124E-01    0.271E+00
RMM: 104    -0.107432146396E+04   -0.29773E-01   -0.37906E-03  2248   0.115E-01    0.242E+00
RMM: 105    -0.107436491946E+04   -0.43456E-01   -0.35996E-03  2282   0.960E-02    0.219E+00
RMM: 106    -0.107440370340E+04   -0.38784E-01   -0.24590E-03  2299   0.782E-02    0.210E+00
RMM: 107    -0.107446545733E+04   -0.61754E-01   -0.42970E-03  2199   0.814E-02    0.177E+00
RMM: 108    -0.107449961295E+04   -0.34156E-01   -0.23684E-03  2428   0.645E-02    0.153E+00
RMM: 109    -0.107452699136E+04   -0.27378E-01   -0.19307E-03  2336   0.523E-02    0.129E+00
RMM: 110    -0.107454852187E+04   -0.21531E-01   -0.14412E-03  2363   0.493E-02    0.104E+00
RMM: 111    -0.107457403772E+04   -0.25516E-01   -0.22750E-03  2200   0.554E-02    0.753E-01
RMM: 112    -0.107458484168E+04   -0.10804E-01   -0.10342E-03  2376   0.460E-02    0.630E-01
RMM: 113    -0.107458771518E+04   -0.28735E-02   -0.35614E-04  2331   0.251E-02    0.613E-01
RMM: 114    -0.107459474981E+04   -0.70346E-02   -0.49139E-04  2170   0.266E-02    0.637E-01
RMM: 115    -0.107459835412E+04   -0.36043E-02   -0.35882E-04  2338   0.232E-02    0.524E-01
RMM: 116    -0.107459977477E+04   -0.14207E-02   -0.16058E-04  2301   0.199E-02    0.561E-01
RMM: 117    -0.107460123585E+04   -0.14611E-02   -0.13433E-04  2178   0.167E-02    0.509E-01
RMM: 118    -0.107460358731E+04   -0.23515E-02   -0.23887E-04  2214   0.175E-02    0.425E-01
RMM: 119    -0.107460482168E+04   -0.12344E-02   -0.18360E-04  2313   0.143E-02    0.437E-01
RMM: 120    -0.107460514034E+04   -0.31866E-03   -0.63490E-05  2044   0.917E-03
   1 F= -.10828450E+04 E0= -.10828218E+04  d E =-.108284E+04  mag=    23.3310
       N       E                     dE             d eps       ncg     rms          rms(c)
DAV:   1     0.258962424835E+03    0.13336E+04   -0.69505E+04  2496   0.575E+02    0.457E+02
RMM:   2    -0.837278919865E+03   -0.10962E+04   -0.11710E+04  2874   0.217E+02    0.236E+02
RMM:   3    -0.125176666495E+04   -0.41449E+03   -0.50505E+03  3120   0.153E+02    0.556E+02
RMM:   4    -0.113401587691E+04    0.11775E+03   -0.10156E+03  2816   0.546E+01    0.333E+02
RMM:   5    -0.780309436932E+03    0.35371E+03   -0.65554E+02  2144   0.595E+01    0.190E+02
RMM:   6    -0.567294293026E+03    0.21302E+03   -0.29990E+02  2295   0.348E+01    0.151E+02
RMM:   7    -0.541334902085E+03    0.25959E+02   -0.16645E+02  2509   0.204E+01    0.125E+02
RMM:   8    -0.543973746887E+03   -0.26388E+01   -0.90197E+01  2322   0.184E+01    0.124E+02
RMM:   9    -0.604135852677E+03   -0.60162E+02   -0.16916E+02  2061   0.324E+01    0.170E+02
RMM:  10    -0.583008337941E+03    0.21128E+02   -0.65231E+01  2561   0.143E+01    0.143E+02
RMM:  11    -0.592227272312E+03   -0.92189E+01   -0.90509E+01  2057   0.219E+01    0.144E+02
RMM:  12    -0.577909681573E+03    0.14318E+02   -0.53153E+01  2105   0.170E+01    0.122E+02
RMM:  13    -0.576668996538E+03    0.12407E+01   -0.80348E+01  2033   0.209E+01    0.122E+02
RMM:  14    -0.524737972259E+03    0.51931E+02   -0.32916E+01  2103   0.129E+01    0.890E+01
RMM:  15    -0.500475911440E+03    0.24262E+02   -0.27634E+01  2046   0.117E+01    0.694E+01
RMM:  16    -0.501728495835E+03   -0.12526E+01   -0.16013E+01  2190   0.826E+00    0.694E+01
RMM:  17    -0.486418840986E+03    0.15310E+02   -0.56957E+00  2227   0.492E+00    0.408E+01
RMM:  18    -0.494026061427E+03   -0.76072E+01   -0.52451E+00  2115   0.495E+00    0.630E+01
RMM:  19    -0.487478701558E+03    0.65474E+01   -0.56993E+00  2140   0.502E+00    0.453E+01
RMM:  20    -0.484935006611E+03    0.25437E+01   -0.29970E+00  2003   0.440E+00    0.410E+01
RMM:  21    -0.484100304063E+03    0.83470E+00   -0.60027E-01  2384   0.136E+00    0.343E+01
RMM:  22    -0.486953815758E+03   -0.28535E+01   -0.99729E-01  2024   0.186E+00    0.375E+01
RMM:  23    -0.487531197876E+03   -0.57738E+00   -0.18760E+00  2048   0.270E+00    0.393E+01
RMM:  24    -0.488852458293E+03   -0.13213E+01   -0.33350E+00  2050   0.376E+00    0.369E+01
RMM:  25    -0.488093619715E+03    0.75884E+00   -0.33430E+00  2033   0.377E+00    0.311E+01
RMM:  26    -0.487598560845E+03    0.49506E+00   -0.25956E+00  2055   0.338E+00    0.269E+01
RMM:  27    -0.487402292548E+03    0.19627E+00   -0.27966E+00  2047   0.348E+00    0.303E+01
RMM:  28    -0.487173593746E+03    0.22870E+00   -0.11946E+00  2049   0.232E+00    0.227E+01
RMM:  29    -0.487989632048E+03   -0.81604E+00   -0.12419E+00  2020   0.245E+00    0.237E+01
RMM:  30    -0.488239768698E+03   -0.25014E+00   -0.11527E+00  2025   0.233E+00    0.236E+01
RMM:  31    -0.487908760732E+03    0.33101E+00   -0.27359E-01  2302   0.994E-01    0.193E+01
RMM:  32    -0.488024341841E+03   -0.11558E+00   -0.73617E-02  2499   0.328E-01    0.194E+01
RMM:  33    -0.488089276897E+03   -0.64935E-01   -0.15518E-02  2498   0.167E-01    0.193E+01
RMM:  34    -0.488155555485E+03   -0.66279E-01   -0.82803E-03  2151   0.154E-01    0.193E+01
RMM:  35    -0.488392126600E+03   -0.23657E+00   -0.28689E-02  2052   0.286E-01    0.194E+01
RMM:  36    -0.488320352997E+03    0.71774E-01   -0.60203E-03  2219   0.141E-01    0.194E+01
RMM:  37    -0.488256119722E+03    0.64233E-01   -0.24934E-03  2069   0.926E-02    0.194E+01
RMM:  38    -0.488397931141E+03   -0.14181E+00   -0.92188E-03  2018   0.167E-01    0.193E+01
RMM:  39    -0.488718533808E+03   -0.32060E+00   -0.16482E-01  2010   0.826E-01    0.188E+01
RMM:  40    -0.488423595176E+03    0.29494E+00   -0.11818E-01  2033   0.735E-01    0.192E+01
RMM:  41    -0.488204463945E+03    0.21913E+00   -0.39031E-02  2417   0.298E-01    0.186E+01
RMM:  42    -0.487437840747E+03    0.76662E+00   -0.24697E-01  2042   0.745E-01    0.193E+01
RMM:  43    -0.486938039668E+03    0.49980E+00   -0.18107E-01  2241   0.596E-01    0.187E+01
RMM:  44    -0.486916450387E+03    0.21589E-01   -0.48577E-02  2477   0.337E-01    0.185E+01
RMM:  45    -0.485801436533E+03    0.11150E+01   -0.48445E-01  2028   0.975E-01    0.169E+01
RMM:  46    -0.483987686136E+03    0.18138E+01   -0.81053E-01  2089   0.146E+00    0.156E+01
RMM:  47    -0.483829062101E+03    0.15862E+00   -0.14582E+00  2074   0.207E+00    0.171E+01
RMM:  48    -0.485505000766E+03   -0.16759E+01   -0.26181E+00  2339   0.193E+00    0.171E+01
RMM:  49    -0.486249344375E+03   -0.74434E+00   -0.72535E-01  2447   0.107E+00    0.166E+01
RMM:  50    -0.487177163174E+03   -0.92782E+00   -0.77817E-01  2171   0.930E-01    0.154E+01
RMM:  51    -0.488427752521E+03   -0.12506E+01   -0.39894E-01  2086   0.113E+00    0.131E+01
RMM:  52    -0.489277940861E+03   -0.85019E+00   -0.15837E+00  2088   0.194E+00    0.126E+01
RMM:  53    -0.489277686760E+03    0.25410E-03   -0.18232E-01  2264   0.774E-01    0.113E+01
RMM:  54    -0.489735581277E+03   -0.45789E+00   -0.18775E-01  2169   0.680E-01    0.105E+01
RMM:  55    -0.489632067927E+03    0.10351E+00   -0.23927E-01  2305   0.741E-01    0.985E+00
RMM:  56    -0.489700963061E+03   -0.68895E-01   -0.18019E-01  2357   0.585E-01    0.904E+00
RMM:  57    -0.489622594143E+03    0.78369E-01   -0.11559E-01  2196   0.584E-01    0.859E+00
RMM:  58    -0.489902277049E+03   -0.27968E+00   -0.95852E-02  2147   0.519E-01    0.101E+01
RMM:  59    -0.489822647922E+03    0.79629E-01   -0.30747E-02  2383   0.242E-01    0.987E+00
RMM:  60    -0.489809777552E+03    0.12870E-01   -0.82676E-03  2409   0.133E-01    0.111E+01
RMM:  61    -0.489803891742E+03    0.58858E-02   -0.43786E-03  2191   0.109E-01    0.114E+01
RMM:  62    -0.493191367093E+03   -0.33875E+01   -0.11556E+00  2040   0.150E+00    0.219E+01
RMM:  63    -0.492651014123E+03    0.54035E+00   -0.18421E-01  2080   0.836E-01    0.195E+01
RMM:  64    -0.492741759773E+03   -0.90746E-01   -0.95890E-02  2189   0.447E-01    0.188E+01
RMM:  65    -0.492568447986E+03    0.17331E+00   -0.12612E-01  2069   0.571E-01    0.175E+01
RMM:  66    -0.492214304019E+03    0.35414E+00   -0.10315E-01  2355   0.451E-01    0.170E+01
RMM:  67    -0.492056448117E+03    0.15786E+00   -0.55825E-01  2080   0.112E+00    0.186E+01
RMM:  68    -0.492046612648E+03    0.98355E-02   -0.12334E-01  2020   0.779E-01    0.174E+01
RMM:  69    -0.492051032908E+03   -0.44203E-02   -0.59913E-02  2107   0.430E-01    0.169E+01
RMM:  70    -0.492067802342E+03   -0.16769E-01   -0.12482E-01  2144   0.493E-01    0.169E+01
RMM:  71    -0.491992586077E+03    0.75216E-01   -0.98470E-02  2170   0.490E-01    0.169E+01
RMM:  72    -0.491427078921E+03    0.56551E+00   -0.13271E-01  2036   0.679E-01    0.173E+01
RMM:  73    -0.491552155184E+03   -0.12508E+00   -0.20097E-02  2183   0.286E-01    0.172E+01
RMM:  74    -0.491546438097E+03    0.57171E-02   -0.50494E-03  2618   0.864E-02    0.171E+01
RMM:  75    -0.491453525606E+03    0.92912E-01   -0.10146E-02  2077   0.201E-01    0.160E+01
RMM:  76    -0.491532310580E+03   -0.78785E-01   -0.10846E-02  2195   0.191E-01    0.146E+01
RMM:  77    -0.491653708132E+03   -0.12140E+00   -0.95669E-02  2003   0.631E-01    0.150E+01
RMM:  78    -0.491404525654E+03    0.24918E+00   -0.57003E-02  2030   0.566E-01    0.103E+01
RMM:  79    -0.491391858655E+03    0.12667E-01   -0.17928E-02  2324   0.252E-01    0.102E+01
RMM:  80    -0.491368003390E+03    0.23855E-01   -0.30762E-03  2277   0.102E-01    0.101E+01
RMM:  81    -0.491364491395E+03    0.35120E-02   -0.15349E-03  2479   0.567E-02    0.101E+01
RMM:  82    -0.491400342957E+03   -0.35852E-01   -0.26116E-02  2027   0.327E-01    0.109E+01
RMM:  83    -0.491365792298E+03    0.34551E-01   -0.44271E-03  2463   0.119E-01    0.109E+01
RMM:  84    -0.491356594365E+03    0.91979E-02   -0.96827E-04  2344   0.506E-02    0.110E+01
RMM:  85    -0.491376087537E+03   -0.19493E-01   -0.26536E-02  2017   0.340E-01    0.108E+01
RMM:  86    -0.491364002268E+03    0.12085E-01   -0.21410E-02  2066   0.296E-01    0.984E+00
RMM:  87    -0.491392810557E+03   -0.28808E-01   -0.30790E-02  2051   0.364E-01    0.961E+00
RMM:  88    -0.491373211929E+03    0.19599E-01   -0.45865E-02  2051   0.422E-01    0.921E+00
RMM:  89    -0.491474402656E+03   -0.10119E+00   -0.34036E-02  2338   0.253E-01    0.772E+00
RMM:  90    -0.491784082410E+03   -0.30968E+00   -0.34833E-02  2230   0.282E-01    0.119E+01
RMM:  91    -0.491811906041E+03   -0.27824E-01   -0.48825E-02  2345   0.313E-01    0.116E+01
RMM:  92    -0.491781545948E+03    0.30360E-01   -0.95231E-02  2044   0.504E-01    0.129E+01
RMM:  93    -0.491987107896E+03   -0.20556E+00   -0.27189E-02  2235   0.285E-01    0.162E+01
RMM:  94    -0.491999423870E+03   -0.12316E-01   -0.11322E-02  2540   0.168E-01    0.159E+01
RMM:  95    -0.492026841639E+03   -0.27418E-01   -0.91302E-03  2131   0.153E-01    0.165E+01
RMM:  96    -0.491981796863E+03    0.45045E-01   -0.20247E-02  2119   0.245E-01    0.137E+01
RMM:  97    -0.492076442969E+03   -0.94646E-01   -0.58676E-02  2101   0.417E-01    0.156E+01
RMM:  98    -0.491951552151E+03    0.12489E+00   -0.34526E-02  2054   0.360E-01    0.566E+00
RMM:  99    -0.492093011424E+03   -0.14146E+00   -0.35504E-02  2078   0.344E-01    0.897E+00
RMM: 100    -0.492106085759E+03   -0.13074E-01   -0.17124E-02  2328   0.208E-01    0.741E+00
RMM: 101    -0.492124578119E+03   -0.18492E-01   -0.78168E-03  2513   0.115E-01    0.757E+00
RMM: 102    -0.492080868293E+03    0.43710E-01   -0.51992E-02  2010   0.412E-01    0.729E+00
RMM: 103    -0.492085653583E+03   -0.47853E-02   -0.25555E-02  2101   0.326E-01    0.711E+00
RMM: 104    -0.492142275605E+03   -0.56622E-01   -0.20259E-02  2348   0.215E-01    0.219E+00
RMM: 105    -0.492227447153E+03   -0.85172E-01   -0.12073E-02  2216   0.195E-01    0.430E+00
RMM: 106    -0.492225236846E+03    0.22103E-02   -0.69728E-03  2225   0.149E-01    0.493E+00
RMM: 107    -0.492262849813E+03   -0.37613E-01   -0.51741E-03  2337   0.112E-01    0.595E+00
RMM: 108    -0.492281013817E+03   -0.18164E-01   -0.42438E-03  2237   0.122E-01    0.614E+00
RMM: 109    -0.492311189227E+03   -0.30175E-01   -0.63439E-03  2277   0.129E-01    0.600E+00
RMM: 110    -0.492322424771E+03   -0.11236E-01   -0.35356E-03  2459   0.938E-02    0.593E+00
RMM: 111    -0.492348532887E+03   -0.26108E-01   -0.66601E-03  2253   0.118E-01    0.561E+00
RMM: 112    -0.492391099621E+03   -0.42567E-01   -0.17150E-02  2313   0.195E-01    0.524E+00
RMM: 113    -0.492386162573E+03    0.49370E-02   -0.46957E-03  2090   0.133E-01    0.518E+00
RMM: 114    -0.492382733784E+03    0.34288E-02   -0.41350E-03  2292   0.102E-01    0.515E+00
RMM: 115    -0.492375644261E+03    0.70895E-02   -0.28030E-03  2428   0.777E-02    0.504E+00
RMM: 116    -0.492376846556E+03   -0.12023E-02   -0.24773E-03  2449   0.691E-02    0.480E+00
RMM: 117    -0.492380035826E+03   -0.31893E-02   -0.30729E-03  2168   0.104E-01    0.478E+00
RMM: 118    -0.492383443139E+03   -0.34073E-02   -0.11889E-03  2069   0.759E-02    0.469E+00
RMM: 119    -0.492384057802E+03   -0.61466E-03   -0.31488E-04  2489   0.237E-02    0.469E+00
RMM: 120    -0.492390963862E+03   -0.69061E-02   -0.54153E-04  2226   0.304E-02
   2 F= -.50100898E+03 E0= -.50097424E+03  d E =0.581836E+03  mag=    14.8853
       N       E                     dE             d eps       ncg     rms          rms(c)
DAV:   1    -0.573811214262E+03   -0.81427E+02   -0.47399E+04  2448   0.518E+02    0.220E+02
RMM:   2    -0.183402299198E+04   -0.12602E+04   -0.94923E+03  3363   0.184E+02    0.441E+02
RMM:   3    -0.135524952662E+04    0.47877E+03   -0.21526E+03  2954   0.845E+01    0.221E+02
RMM:   4    -0.205237155846E+04   -0.69712E+03   -0.15212E+03  2863   0.724E+01    0.314E+02
RMM:   5    -0.149385547748E+04    0.55852E+03   -0.31174E+02  2309   0.401E+01    0.215E+02
RMM:   6    -0.142246155558E+04    0.71394E+02   -0.54664E+02  2266   0.525E+01    0.189E+02
RMM:   7    -0.126845808027E+04    0.15400E+03   -0.11732E+02  2089   0.272E+01    0.165E+02
RMM:   8    -0.120989309034E+04    0.58565E+02   -0.10470E+02  2072   0.233E+01    0.156E+02
RMM:   9    -0.115587072760E+04    0.54022E+02   -0.68869E+01  2180   0.170E+01    0.138E+02
RMM:  10    -0.110357017253E+04    0.52301E+02   -0.37627E+01  2077   0.127E+01    0.112E+02
RMM:  11    -0.110202187233E+04    0.15483E+01   -0.15682E+01  2161   0.769E+00    0.109E+02
RMM:  12    -0.111158494766E+04   -0.95631E+01   -0.12667E+01  2156   0.756E+00    0.114E+02
RMM:  13    -0.110804295915E+04    0.35420E+01   -0.10799E+01  2203   0.657E+00    0.111E+02
RMM:  14    -0.110857058085E+04   -0.52762E+00   -0.90368E+00  2237   0.606E+00    0.113E+02
RMM:  15    -0.110030129139E+04    0.82693E+01   -0.18838E+01  2109   0.894E+00    0.965E+01
RMM:  16    -0.110449074759E+04   -0.41895E+01   -0.16209E+01  2038   0.912E+00    0.925E+01
RMM:  17    -0.116145926802E+04   -0.56969E+02   -0.45886E+01  2092   0.147E+01    0.136E+02
RMM:  18    -0.115787544929E+04    0.35838E+01   -0.52193E+01  2187   0.157E+01    0.132E+02
RMM:  19    -0.110295922278E+04    0.54916E+02   -0.41339E+01  2122   0.141E+01    0.893E+01
RMM:  20    -0.109327856364E+04    0.96807E+01   -0.17881E+01  2141   0.885E+00    0.834E+01
RMM:  21    -0.110826574172E+04   -0.14987E+02   -0.18327E+01  2128   0.901E+00    0.879E+01
RMM:  22    -0.109171196685E+04    0.16554E+02   -0.10513E+01  2159   0.696E+00    0.620E+01
RMM:  23    -0.109929271109E+04   -0.75807E+01   -0.59955E+00  2242   0.467E+00    0.726E+01
RMM:  24    -0.109412886778E+04    0.51638E+01   -0.14154E+00  2342   0.225E+00    0.639E+01
RMM:  25    -0.109324863245E+04    0.88024E+00   -0.53951E-01  2386   0.121E+00    0.617E+01
RMM:  26    -0.109533459650E+04   -0.20860E+01   -0.13070E+00  2068   0.227E+00    0.610E+01
RMM:  27    -0.109588200981E+04   -0.54741E+00   -0.17665E+00  2124   0.261E+00    0.609E+01
RMM:  28    -0.109496464988E+04    0.91736E+00   -0.37324E-01  2326   0.107E+00    0.578E+01
RMM:  29    -0.109547439362E+04   -0.50974E+00   -0.34890E-01  2226   0.111E+00    0.572E+01
RMM:  30    -0.109512456014E+04    0.34983E+00   -0.19247E-01  2115   0.937E-01    0.571E+01
RMM:  31    -0.109507410502E+04    0.50455E-01   -0.54246E-02  2450   0.377E-01    0.565E+01
RMM:  32    -0.109526727879E+04   -0.19317E+00   -0.26166E-01  2097   0.100E+00    0.586E+01
RMM:  33    -0.109513706184E+04    0.13022E+00   -0.58451E-02  2489   0.365E-01    0.591E+01
RMM:  34    -0.109484771197E+04    0.28935E+00   -0.88205E-02  2092   0.649E-01    0.595E+01
RMM:  35    -0.109630541475E+04   -0.14577E+01   -0.41526E-01  2087   0.140E+00    0.577E+01
RMM:  36    -0.109519517873E+04    0.11102E+01   -0.42750E-01  2187   0.126E+00    0.566E+01
RMM:  37    -0.109249703144E+04    0.26981E+01   -0.81299E-01  2176   0.170E+00    0.544E+01
RMM:  38    -0.108923242086E+04    0.32646E+01   -0.12109E+00  2259   0.203E+00    0.501E+01
RMM:  39    -0.108657506802E+04    0.26574E+01   -0.64068E-01  2481   0.131E+00    0.469E+01
RMM:  40    -0.108647189651E+04    0.10317E+00   -0.16990E-01  2270   0.774E-01    0.464E+01
RMM:  41    -0.108681845135E+04   -0.34655E+00   -0.82790E-02  2404   0.501E-01    0.466E+01
RMM:  42    -0.108657133530E+04    0.24712E+00   -0.54387E-02  2243   0.423E-01    0.465E+01
RMM:  43    -0.108630633126E+04    0.26500E+00   -0.73917E-02  2158   0.527E-01    0.457E+01
RMM:  44    -0.108526825768E+04    0.10381E+01   -0.19284E-01  2081   0.773E-01    0.444E+01
RMM:  45    -0.108199241735E+04    0.32758E+01   -0.11132E+00  2108   0.157E+00    0.387E+01
RMM:  46    -0.108102284098E+04    0.96958E+00   -0.68378E-01  2251   0.124E+00    0.342E+01
RMM:  47    -0.107576404751E+04    0.52588E+01   -0.66679E+00  2099   0.425E+00    0.325E+01
RMM:  48    -0.107837894427E+04   -0.26149E+01   -0.16561E+00  2184   0.210E+00    0.295E+01
RMM:  49    -0.107876167251E+04   -0.38273E+00   -0.58320E-01  2342   0.122E+00    0.268E+01
RMM:  50    -0.107901447221E+04   -0.25280E+00   -0.21513E-01  2420   0.743E-01    0.242E+01
RMM:  51    -0.107896643106E+04    0.48041E-01   -0.54384E-01  2120   0.132E+00    0.222E+01
RMM:  52    -0.108194284850E+04   -0.29764E+01   -0.37632E+00  2153   0.348E+00    0.427E+01
RMM:  53    -0.107987938030E+04    0.20635E+01   -0.13945E+00  2066   0.251E+00    0.269E+01
RMM:  54    -0.107944311676E+04    0.43626E+00   -0.69483E-01  2284   0.163E+00    0.208E+01
RMM:  55    -0.107912018555E+04    0.32293E+00   -0.74065E-01  2174   0.158E+00    0.168E+01
RMM:  56    -0.107964407666E+04   -0.52389E+00   -0.39590E-01  2320   0.117E+00    0.150E+01
RMM:  57    -0.108017390017E+04   -0.52982E+00   -0.52757E-01  2235   0.137E+00    0.186E+01
RMM:  58    -0.107981273230E+04    0.36117E+00   -0.32738E-01  2149   0.117E+00    0.166E+01
RMM:  59    -0.107978790313E+04    0.24829E-01   -0.24133E-01  2273   0.959E-01    0.167E+01
RMM:  60    -0.107948612994E+04    0.30177E+00   -0.22227E-01  2231   0.902E-01    0.150E+01
RMM:  61    -0.107956218123E+04   -0.76051E-01   -0.10793E-01  2195   0.622E-01    0.153E+01
RMM:  62    -0.108076840048E+04   -0.12062E+01   -0.53524E-01  2200   0.139E+00    0.246E+01
RMM:  63    -0.107957125500E+04    0.11971E+01   -0.35577E-01  2074   0.130E+00    0.155E+01
RMM:  64    -0.107952033654E+04    0.50918E-01   -0.12335E-01  2129   0.740E-01    0.139E+01
RMM:  65    -0.107957640491E+04   -0.56068E-01   -0.93516E-02  2225   0.589E-01    0.145E+01
RMM:  66    -0.107957477264E+04    0.16323E-02   -0.50998E-02  2179   0.437E-01    0.133E+01
RMM:  67    -0.107985918650E+04   -0.28441E+00   -0.27445E-01  2164   0.101E+00    0.180E+01
RMM:  68    -0.107964685958E+04    0.21233E+00   -0.13793E-01  2104   0.818E-01    0.139E+01
RMM:  69    -0.107965496199E+04   -0.81024E-02   -0.11950E-01  2220   0.706E-01    0.142E+01
RMM:  70    -0.107963335748E+04    0.21605E-01   -0.68270E-02  2185   0.546E-01    0.114E+01
RMM:  71    -0.107969429308E+04   -0.60936E-01   -0.30659E-02  2111   0.378E-01    0.117E+01
RMM:  72    -0.107991989039E+04   -0.22560E+00   -0.10440E-01  2061   0.646E-01    0.164E+01
RMM:  73    -0.107970704625E+04    0.21284E+00   -0.73687E-02  2106   0.621E-01    0.137E+01
RMM:  74    -0.107959842186E+04    0.10862E+00   -0.39748E-02  2253   0.363E-01    0.113E+01
RMM:  75    -0.107961838247E+04   -0.19961E-01   -0.83353E-02  2079   0.606E-01    0.124E+01
RMM:  76    -0.107971467308E+04   -0.96291E-01   -0.64028E-02  2180   0.528E-01    0.130E+01
RMM:  77    -0.107996026096E+04   -0.24559E+00   -0.21586E-01  2058   0.958E-01    0.131E+01
RMM:  78    -0.107985918108E+04    0.10108E+00   -0.12527E-01  2027   0.843E-01    0.117E+01
RMM:  79    -0.107980818416E+04    0.50997E-01   -0.36193E-02  2357   0.353E-01    0.103E+01
RMM:  80    -0.107986304145E+04   -0.54857E-01   -0.51345E-02  2214   0.418E-01    0.935E+00
RMM:  81    -0.108005408930E+04   -0.19105E+00   -0.39190E-02  2113   0.389E-01    0.934E+00
RMM:  82    -0.108043062487E+04   -0.37654E+00   -0.12294E-01  2124   0.701E-01    0.111E+01
RMM:  83    -0.108057450211E+04   -0.14388E+00   -0.82155E-02  2236   0.591E-01    0.104E+01
RMM:  84    -0.108068077648E+04   -0.10627E+00   -0.36435E-02  2415   0.342E-01    0.857E+00
RMM:  85    -0.108084174151E+04   -0.16097E+00   -0.54226E-02  2160   0.452E-01    0.847E+00
RMM:  86    -0.108097632802E+04   -0.13459E+00   -0.36329E-02  2090   0.420E-01    0.680E+00
RMM:  87    -0.108122701173E+04   -0.25068E+00   -0.16539E-01  2214   0.700E-01    0.991E+00
RMM:  88    -0.108121872196E+04    0.82898E-02   -0.35174E-02  2097   0.435E-01    0.868E+00
RMM:  89    -0.108122323727E+04   -0.45153E-02   -0.78176E-03  2575   0.137E-01    0.863E+00
RMM:  90    -0.108124188792E+04   -0.18651E-01   -0.49075E-03  2172   0.133E-01    0.912E+00
RMM:  91    -0.108122527075E+04    0.16617E-01   -0.14776E-03  2172   0.784E-02    0.914E+00
RMM:  92    -0.108130700141E+04   -0.81731E-01   -0.30322E-02  2107   0.291E-01    0.113E+01
RMM:  93    -0.108128162158E+04    0.25380E-01   -0.53196E-03  2074   0.169E-01    0.116E+01
RMM:  94    -0.108136440635E+04   -0.82785E-01   -0.16900E-02  2063   0.270E-01    0.122E+01
RMM:  95    -0.108143308489E+04   -0.68679E-01   -0.18082E-02  2231   0.248E-01    0.108E+01
RMM:  96    -0.108143455085E+04   -0.14660E-02   -0.83582E-03  2308   0.162E-01    0.960E+00
RMM:  97    -0.108140783813E+04    0.26713E-01   -0.23775E-02  2099   0.303E-01    0.703E+00
RMM:  98    -0.108145794823E+04   -0.50110E-01   -0.19401E-02  2085   0.298E-01    0.625E+00
RMM:  99    -0.108160951554E+04   -0.15157E+00   -0.22566E-02  2088   0.276E-01    0.551E+00
RMM: 100    -0.108181233537E+04   -0.20282E+00   -0.38824E-02  2244   0.355E-01    0.535E+00
RMM: 101    -0.108195975151E+04   -0.14742E+00   -0.26568E-02  2350   0.299E-01    0.528E+00
RMM: 102    -0.108214121578E+04   -0.18146E+00   -0.25629E-02  2241   0.258E-01    0.577E+00
RMM: 103    -0.108221272925E+04   -0.71513E-01   -0.15046E-02  2474   0.199E-01    0.540E+00
RMM: 104    -0.108225026672E+04   -0.37537E-01   -0.54841E-03  2548   0.108E-01    0.531E+00
RMM: 105    -0.108227102111E+04   -0.20754E-01   -0.47620E-03  2308   0.117E-01    0.488E+00
RMM: 106    -0.108229776233E+04   -0.26741E-01   -0.50442E-03  2367   0.115E-01    0.475E+00
RMM: 107    -0.108232331987E+04   -0.25558E-01   -0.28072E-02  2106   0.302E-01    0.626E+00
RMM: 108    -0.108236834602E+04   -0.45026E-01   -0.14775E-02  2212   0.235E-01    0.709E+00
RMM: 109    -0.108236671409E+04    0.16319E-02   -0.28900E-03  2460   0.100E-01    0.712E+00
RMM: 110    -0.108237433368E+04   -0.76196E-02   -0.34103E-03  2331   0.885E-02    0.737E+00
RMM: 111    -0.108238606779E+04   -0.11734E-01   -0.39132E-03  2076   0.121E-01    0.701E+00
RMM: 112    -0.108238906601E+04   -0.29982E-02   -0.36040E-02  2138   0.358E-01    0.608E+00
RMM: 113    -0.108242017713E+04   -0.31111E-01   -0.13505E-02  2092   0.251E-01    0.491E+00
RMM: 114    -0.108245425443E+04   -0.34077E-01   -0.12232E-02  2372   0.202E-01    0.347E+00
RMM: 115    -0.108247728815E+04   -0.23034E-01   -0.57332E-03  2303   0.130E-01    0.302E+00
RMM: 116    -0.108253836118E+04   -0.61073E-01   -0.62641E-03  2206   0.140E-01    0.286E+00
RMM: 117    -0.108268541028E+04   -0.14705E+00   -0.22773E-02  2109   0.261E-01    0.221E+00
RMM: 118    -0.108270352556E+04   -0.18115E-01   -0.11072E-02  2207   0.202E-01    0.200E+00
RMM: 119    -0.108272843454E+04   -0.24909E-01   -0.62496E-03  2344   0.149E-01    0.159E+00
RMM: 120    -0.108275899671E+04   -0.30562E-01   -0.38781E-03  2321   0.115E-01
   3 F= -.10910319E+04 E0= -.10910063E+04  d E =-.818696E+01  mag=     9.8940
       N       E                     dE             d eps       ncg     rms          rms(c)
DAV:   1    -0.109318812352E+04   -0.10460E+02   -0.79878E+02  2052   0.643E+01    0.174E+01
RMM:   2    -0.109749396200E+04   -0.43058E+01   -0.28579E+01  2120   0.129E+01    0.251E+01
RMM:   3    -0.110014158745E+04   -0.26476E+01   -0.92142E+00  2260   0.758E+00    0.372E+01
RMM:   4    -0.110074119213E+04   -0.59960E+00   -0.62253E+00  2321   0.511E+00    0.408E+01
RMM:   5    -0.109613307295E+04    0.46081E+01   -0.30702E+00  2133   0.394E+00    0.217E+01
RMM:   6    -0.109601041203E+04    0.12266E+00   -0.16946E+00  2280   0.252E+00    0.200E+01
RMM:   7    -0.109578583756E+04    0.22457E+00   -0.75665E-01  2279   0.172E+00    0.183E+01
RMM:   8    -0.109588898966E+04   -0.10315E+00   -0.61944E-01  2107   0.174E+00    0.212E+01
RMM:   9    -0.109518325437E+04    0.70574E+00   -0.45100E-01  2118   0.138E+00    0.118E+01
RMM:  10    -0.109515107642E+04    0.32178E-01   -0.21662E-01  2132   0.103E+00    0.102E+01
RMM:  11    -0.109504798172E+04    0.10309E+00   -0.15108E-01  2200   0.820E-01    0.905E+00
RMM:  12    -0.109510892037E+04   -0.60939E-01   -0.13916E-01  2255   0.691E-01    0.115E+01
RMM:  13    -0.109503209725E+04    0.76823E-01   -0.19891E-01  2147   0.905E-01    0.101E+01
RMM:  14    -0.109501914044E+04    0.12957E-01   -0.16495E-01  2137   0.848E-01    0.127E+01
RMM:  15    -0.109504200202E+04   -0.22862E-01   -0.21026E-01  2114   0.935E-01    0.741E+00
RMM:  16    -0.109513298977E+04   -0.90988E-01   -0.14012E-01  2101   0.803E-01    0.636E+00
RMM:  17    -0.109513119482E+04    0.17950E-02   -0.78076E-02  2181   0.558E-01    0.505E+00
RMM:  18    -0.109518468378E+04   -0.53489E-01   -0.72000E-02  2228   0.513E-01    0.664E+00
RMM:  19    -0.109519512010E+04   -0.10436E-01   -0.11162E-01  2209   0.651E-01    0.554E+00
RMM:  20    -0.109516410597E+04    0.31014E-01   -0.70116E-02  2134   0.586E-01    0.639E+00
RMM:  21    -0.109515949272E+04    0.46132E-02   -0.41527E-02  2074   0.434E-01    0.697E+00
RMM:  22    -0.109511023683E+04    0.49256E-01   -0.18743E-02  2273   0.253E-01    0.545E+00
RMM:  23    -0.109509709544E+04    0.13141E-01   -0.34978E-02  2182   0.356E-01    0.239E+00
RMM:  24    -0.109520675686E+04   -0.10966E+00   -0.26274E-02  2068   0.359E-01    0.340E+00
RMM:  25    -0.109529287495E+04   -0.86118E-01   -0.18225E-02  2088   0.258E-01    0.335E+00
RMM:  26    -0.109534740421E+04   -0.54529E-01   -0.10263E-02  2303   0.177E-01    0.247E+00
RMM:  27    -0.109536882770E+04   -0.21423E-01   -0.32589E-03  2348   0.106E-01    0.172E+00
RMM:  28    -0.109537397619E+04   -0.51485E-02   -0.12853E-03  2153   0.668E-02    0.161E+00
RMM:  29    -0.109538523311E+04   -0.11257E-01   -0.76204E-04  2308   0.472E-02    0.177E+00
RMM:  30    -0.109544983749E+04   -0.64604E-01   -0.52250E-03  2037   0.131E-01    0.183E+00
RMM:  31    -0.109557219619E+04   -0.12236E+00   -0.16365E-02  2047   0.203E-01    0.118E+00
RMM:  32    -0.109562378249E+04   -0.51586E-01   -0.97556E-03  2257   0.176E-01    0.153E+00
RMM:  33    -0.109565275683E+04   -0.28974E-01   -0.43874E-03  2330   0.106E-01    0.121E+00
RMM:  34    -0.109566957300E+04   -0.16816E-01   -0.20919E-03  2342   0.754E-02    0.659E-01
RMM:  35    -0.109569279946E+04   -0.23226E-01   -0.18068E-03  2247   0.719E-02    0.503E-01
RMM:  36    -0.109572154138E+04   -0.28742E-01   -0.16555E-03  2315   0.614E-02    0.538E-01
RMM:  37    -0.109575861573E+04   -0.37074E-01   -0.20399E-03  2345   0.524E-02    0.510E-01
RMM:  38    -0.109579214526E+04   -0.33530E-01   -0.21054E-03  2416   0.504E-02    0.305E-01
RMM:  39    -0.109581577575E+04   -0.23630E-01   -0.15820E-03  2411   0.450E-02    0.193E-01
RMM:  40    -0.109584170402E+04   -0.25928E-01   -0.20542E-03  2370   0.432E-02    0.328E-01
RMM:  41    -0.109585531311E+04   -0.13609E-01   -0.11526E-03  2484   0.339E-02    0.187E-01
RMM:  42    -0.109586810268E+04   -0.12790E-01   -0.12621E-03  2310   0.304E-02    0.141E-01
RMM:  43    -0.109587457366E+04   -0.64710E-02   -0.81187E-04  2406   0.261E-02    0.139E-01
RMM:  44    -0.109588020829E+04   -0.56346E-02   -0.88542E-04  2177   0.235E-02    0.813E-02
RMM:  45    -0.109588430871E+04   -0.41004E-02   -0.61884E-04  2374   0.222E-02    0.481E-02
RMM:  46    -0.109588578643E+04   -0.14777E-02   -0.22431E-04  2239   0.126E-02    0.645E-02
RMM:  47    -0.109588656861E+04   -0.78218E-03   -0.85617E-05  2097   0.107E-02    0.782E-02
RMM:  48    -0.109588723110E+04   -0.66249E-03   -0.66305E-05  1987   0.807E-03    0.378E-02
RMM:  49    -0.109588770635E+04   -0.47524E-03   -0.35197E-05  1941   0.674E-03    0.535E-02
RMM:  50    -0.109588818232E+04   -0.47598E-03   -0.43183E-05  1933   0.584E-03    0.240E-02
RMM:  51    -0.109588832692E+04   -0.14460E-03   -0.91988E-06  1548   0.409E-03    0.345E-02
RMM:  52    -0.109588845618E+04   -0.12925E-03   -0.98419E-06  1572   0.325E-03    0.317E-02
RMM:  53    -0.109588860587E+04   -0.14969E-03   -0.88649E-06  1586   0.352E-03    0.111E-02
RMM:  54    -0.109588874622E+04   -0.14034E-03   -0.94558E-06  1601   0.328E-03    0.182E-02
RMM:  55    -0.109588882794E+04   -0.81724E-04   -0.53518E-06  1471   0.301E-03    0.170E-02
RMM:  56    -0.109588889604E+04   -0.68094E-04   -0.53650E-06  1476   0.236E-03    0.730E-03
RMM:  57    -0.109588892781E+04   -0.31780E-04   -0.23293E-06  1308   0.222E-03    0.636E-03
RMM:  58    -0.109588896347E+04   -0.35653E-04   -0.32212E-06  1333   0.178E-03    0.597E-03
RMM:  59    -0.109588898735E+04   -0.23879E-04   -0.20610E-06  1245   0.177E-03    0.596E-03
RMM:  60    -0.109588900362E+04   -0.16276E-04   -0.21751E-06  1234   0.154E-03    0.250E-03
RMM:  61    -0.109588901157E+04   -0.79462E-05   -0.11494E-06  1124   0.143E-03    0.171E-03
RMM:  62    -0.109588901788E+04   -0.63071E-05   -0.10035E-06  1069   0.116E-03    0.136E-03
RMM:  63    -0.109588902122E+04   -0.33471E-05   -0.66999E-07  1044   0.112E-03    0.127E-03
RMM:  64    -0.109588902318E+04   -0.19592E-05   -0.52324E-07   993   0.887E-04    0.722E-04
RMM:  65    -0.109588902473E+04   -0.15506E-05   -0.38245E-07   986   0.846E-04    0.149E-03
RMM:  66    -0.109588902585E+04   -0.11116E-05   -0.32074E-07   952   0.694E-04    0.708E-04
RMM:  67    -0.109588902644E+04   -0.59548E-06   -0.22983E-07   913   0.665E-04
   4 F= -.11041463E+04 E0= -.11041248E+04  d E =-.213013E+02  mag=    11.6676
       N       E                     dE             d eps       ncg     rms          rms(c)
DAV:   1    -0.109750224779E+04   -0.16132E+01   -0.83100E+02  2148   0.657E+01    0.169E+01
RMM:   2    -0.110050118770E+04   -0.29989E+01   -0.26242E+01  2112   0.120E+01    0.193E+01
RMM:   3    -0.110680478312E+04   -0.63036E+01   -0.11374E+01  2337   0.765E+00    0.448E+01
RMM:   4    -0.110347708296E+04    0.33277E+01   -0.51099E+00  2296   0.490E+00    0.364E+01
RMM:   5    -0.110016483343E+04    0.33122E+01   -0.19084E+00  2190   0.301E+00    0.165E+01
RMM:   6    -0.110049623724E+04   -0.33140E+00   -0.14400E+00  2272   0.228E+00    0.294E+01
RMM:   7    -0.109975392997E+04    0.74231E+00   -0.85735E-01  2221   0.187E+00    0.151E+01
RMM:   8    -0.109967875866E+04    0.75171E-01   -0.68298E-01  2077   0.179E+00    0.132E+01
RMM:   9    -0.109981894086E+04   -0.14018E+00   -0.43995E-01  2312   0.120E+00    0.143E+01
RMM:  10    -0.109963053751E+04    0.18840E+00   -0.33706E-01  2161   0.119E+00    0.936E+00
RMM:  11    -0.109970851041E+04   -0.77973E-01   -0.28937E-01  2205   0.112E+00    0.987E+00
RMM:  12    -0.109970853533E+04   -0.24914E-04   -0.21555E-01  2225   0.962E-01    0.972E+00
RMM:  13    -0.109966176131E+04    0.46774E-01   -0.15883E-01  2204   0.831E-01    0.954E+00
RMM:  14    -0.109958815119E+04    0.73610E-01   -0.90929E-02  2189   0.618E-01    0.545E+00
RMM:  15    -0.109958184619E+04    0.63050E-02   -0.87641E-02  2170   0.621E-01    0.473E+00
RMM:  16    -0.109958749385E+04   -0.56477E-02   -0.72754E-02  2199   0.538E-01    0.434E+00
RMM:  17    -0.109958852087E+04   -0.10270E-02   -0.76405E-02  2181   0.563E-01    0.459E+00
RMM:  18    -0.109955226878E+04    0.36252E-01   -0.38527E-02  2165   0.429E-01    0.274E+00
RMM:  19    -0.109954840413E+04    0.38646E-02   -0.30394E-02  2274   0.351E-01    0.228E+00
RMM:  20    -0.109955869945E+04   -0.10295E-01   -0.19287E-02  2183   0.299E-01    0.370E+00
RMM:  21    -0.109955154889E+04    0.71506E-02   -0.12268E-02  2149   0.241E-01    0.352E+00
RMM:  22    -0.109954101021E+04    0.10539E-01   -0.56837E-03  2218   0.150E-01    0.222E+00
RMM:  23    -0.109954315095E+04   -0.21407E-02   -0.39564E-03  2217   0.125E-01    0.141E+00
RMM:  24    -0.109954551724E+04   -0.23663E-02   -0.37785E-03  2116   0.140E-01    0.104E+00
RMM:  25    -0.109954602624E+04   -0.50900E-03   -0.25123E-03  2236   0.103E-01    0.115E+00
RMM:  26    -0.109954709801E+04   -0.10718E-02   -0.22488E-03  2266   0.990E-02    0.151E+00
RMM:  27    -0.109954537099E+04    0.17270E-02   -0.16509E-03  2201   0.872E-02    0.110E+00
RMM:  28    -0.109954576034E+04   -0.38936E-03   -0.16526E-03  2233   0.815E-02    0.610E-01
RMM:  29    -0.109954728440E+04   -0.15241E-02   -0.10154E-03  2164   0.749E-02    0.864E-01
RMM:  30    -0.109954707316E+04    0.21125E-03   -0.52559E-04  2173   0.516E-02    0.903E-01
RMM:  31    -0.109954659013E+04    0.48302E-03   -0.37454E-04  2154   0.399E-02    0.706E-01
RMM:  32    -0.109954656482E+04    0.25313E-04   -0.41800E-04  2204   0.421E-02    0.304E-01
RMM:  33    -0.109954718963E+04   -0.62481E-03   -0.30316E-04  2260   0.371E-02    0.195E-01
RMM:  34    -0.109954755751E+04   -0.36788E-03   -0.16059E-04  2130   0.283E-02    0.192E-01
RMM:  35    -0.109954762282E+04   -0.65316E-04   -0.93687E-05  2135   0.195E-02    0.151E-01
RMM:  36    -0.109954774938E+04   -0.12655E-03   -0.73492E-05  2073   0.168E-02    0.749E-02
RMM:  37    -0.109954790807E+04   -0.15870E-03   -0.61316E-05  2009   0.158E-02    0.943E-02
RMM:  38    -0.109954803398E+04   -0.12591E-03   -0.28730E-05  1954   0.998E-03    0.950E-02
RMM:  39    -0.109954815002E+04   -0.11604E-03   -0.21033E-05  1856   0.765E-03    0.633E-02
RMM:  40    -0.109954826274E+04   -0.11272E-03   -0.18852E-05  1795   0.774E-03    0.489E-02
RMM:  41    -0.109954834805E+04   -0.85309E-04   -0.13653E-05  1677   0.676E-03    0.251E-02
RMM:  42    -0.109954844138E+04   -0.93332E-04   -0.10915E-05  1715   0.503E-03    0.350E-02
RMM:  43    -0.109954850419E+04   -0.62810E-04   -0.64031E-06  1539   0.424E-03    0.339E-02
RMM:  44    -0.109954857847E+04   -0.74282E-04   -0.82354E-06  1665   0.402E-03    0.160E-02
RMM:  45    -0.109954863655E+04   -0.58082E-04   -0.71278E-06  1606   0.377E-03    0.174E-02
RMM:  46    -0.109954866196E+04   -0.25403E-04   -0.38600E-06  1437   0.296E-03    0.113E-02
RMM:  47    -0.109954867897E+04   -0.17010E-04   -0.25746E-06  1318   0.251E-03    0.168E-02
RMM:  48    -0.109954868754E+04   -0.85706E-05   -0.24088E-06  1312   0.223E-03    0.104E-02
RMM:  49    -0.109954869234E+04   -0.47995E-05   -0.17772E-06  1265   0.206E-03    0.712E-03
RMM:  50    -0.109954869307E+04   -0.73297E-06   -0.13793E-06  1214   0.178E-03
   5 F= -.11077987E+04 E0= -.11077788E+04  d E =-.249537E+02  mag=    11.6566
       N       E                     dE             d eps       ncg     rms          rms(c)
DAV:   1    -0.109964960846E+04   -0.10092E+00   -0.39030E+01  2076   0.139E+01    0.239E+00
RMM:   2    -0.109977472765E+04   -0.12512E+00   -0.12592E+00  2084   0.263E+00    0.431E+00
RMM:   3    -0.109985908201E+04   -0.84354E-01   -0.29353E-01  2485   0.117E+00    0.772E+00
RMM:   4    -0.109977183951E+04    0.87243E-01   -0.10511E-01  2349   0.698E-01    0.545E+00
RMM:   5    -0.109975790049E+04    0.13939E-01   -0.45288E-02  2329   0.442E-01    0.366E+00
RMM:   6    -0.109974771263E+04    0.10188E-01   -0.37905E-02  2163   0.430E-01    0.182E+00
RMM:   7    -0.109975849758E+04   -0.10785E-01   -0.18897E-02  2321   0.281E-01    0.304E+00
RMM:   8    -0.109975338076E+04    0.51168E-02   -0.16158E-02  2345   0.241E-01    0.259E+00
RMM:   9    -0.109975509858E+04   -0.17178E-02   -0.24581E-02  2227   0.336E-01    0.233E+00
RMM:  10    -0.109975678683E+04   -0.16882E-02   -0.22033E-02  2307   0.281E-01    0.282E+00
RMM:  11    -0.109974541590E+04    0.11371E-01   -0.15379E-02  2269   0.239E-01    0.163E+00
RMM:  12    -0.109974533317E+04    0.82736E-04   -0.87046E-03  2254   0.191E-01    0.125E+00
RMM:  13    -0.109974489447E+04    0.43870E-03   -0.50453E-03  2303   0.131E-01    0.116E+00
RMM:  14    -0.109974397577E+04    0.91871E-03   -0.35000E-03  2224   0.116E-01    0.969E-01
RMM:  15    -0.109974317122E+04    0.80455E-03   -0.20143E-03  2158   0.945E-02    0.682E-01
RMM:  16    -0.109974270555E+04    0.46567E-03   -0.63668E-04  2162   0.556E-02    0.399E-01
RMM:  17    -0.109974292245E+04   -0.21690E-03   -0.19051E-04  2144   0.305E-02    0.370E-01
RMM:  18    -0.109974296845E+04   -0.45999E-04   -0.64463E-05  1991   0.170E-02    0.372E-01
RMM:  19    -0.109974300602E+04   -0.37575E-04   -0.12019E-04  2061   0.219E-02    0.444E-01
RMM:  20    -0.109974287686E+04    0.12917E-03   -0.31790E-04  2049   0.383E-02    0.384E-01
RMM:  21    -0.109974280230E+04    0.74558E-04   -0.28724E-04  2148   0.366E-02    0.125E-01
RMM:  22    -0.109974311240E+04   -0.31010E-03   -0.26920E-04  2047   0.367E-02    0.195E-01
RMM:  23    -0.109974305653E+04    0.55875E-04   -0.10862E-04  2010   0.255E-02    0.133E-01
RMM:  24    -0.109974305697E+04   -0.43722E-06   -0.33142E-05  1917   0.109E-02    0.679E-02
RMM:  25    -0.109974308878E+04   -0.31811E-04   -0.13367E-05  1581   0.801E-03    0.597E-02
RMM:  26    -0.109974310658E+04   -0.17805E-04   -0.84093E-06  1493   0.587E-03    0.601E-02
RMM:  27    -0.109974316927E+04   -0.62691E-04   -0.27385E-05  1900   0.104E-02    0.675E-02
RMM:  28    -0.109974319645E+04   -0.27173E-04   -0.18865E-05  1768   0.871E-03    0.392E-02
RMM:  29    -0.109974322126E+04   -0.24818E-04   -0.69024E-06  1530   0.533E-03    0.278E-02
RMM:  30    -0.109974325659E+04   -0.35324E-04   -0.62202E-06  1526   0.475E-03    0.280E-02
RMM:  31    -0.109974328349E+04   -0.26901E-04   -0.48973E-06  1434   0.438E-03    0.193E-02
RMM:  32    -0.109974331248E+04   -0.28986E-04   -0.39810E-06  1393   0.392E-03    0.162E-02
RMM:  33    -0.109974334522E+04   -0.32747E-04   -0.36758E-06  1412   0.325E-03    0.164E-02
RMM:  34    -0.109974336428E+04   -0.19058E-04   -0.23723E-06  1323   0.292E-03    0.110E-02
RMM:  35    -0.109974338785E+04   -0.23570E-04   -0.22152E-06  1308   0.228E-03    0.916E-03
RMM:  36    -0.109974341762E+04   -0.29774E-04   -0.29791E-06  1377   0.210E-03    0.539E-03
RMM:  37    -0.109974344661E+04   -0.28986E-04   -0.35749E-06  1385   0.208E-03    0.103E-02
RMM:  38    -0.109974345867E+04   -0.12064E-04   -0.18850E-06  1266   0.198E-03    0.100E-02
RMM:  39    -0.109974346566E+04   -0.69914E-05   -0.12127E-06  1188   0.159E-03    0.710E-03
RMM:  40    -0.109974347438E+04   -0.87155E-05   -0.12167E-06  1193   0.145E-03    0.495E-03
RMM:  41    -0.109974347960E+04   -0.52214E-05   -0.94882E-07  1128   0.133E-03    0.148E-03
RMM:  42    -0.109974348241E+04   -0.28103E-05   -0.65871E-07  1061   0.110E-03    0.266E-03
RMM:  43    -0.109974348403E+04   -0.16225E-05   -0.46468E-07  1034   0.935E-04    0.159E-03
RMM:  44    -0.109974348522E+04   -0.11811E-05   -0.34777E-07  1005   0.800E-04    0.106E-03
RMM:  45    -0.109974348619E+04   -0.97403E-06   -0.27666E-07   994   0.720E-04
   6 F= -.11079949E+04 E0= -.11079748E+04  d E =-.251499E+02  mag=    11.6556
       N       E                     dE             d eps       ncg     rms          rms(c)
DAV:   1    -0.899529080297E+03    0.20021E+03   -0.19932E+04  2316   0.345E+02    0.131E+02
RMM:   2    -0.131608063308E+04   -0.41655E+03   -0.22969E+03  3091   0.106E+02    0.307E+02
RMM:   3    -0.113583250462E+04    0.18025E+03   -0.41151E+02  2972   0.537E+01    0.237E+02
RMM:   4    -0.118233551041E+04   -0.46503E+02   -0.18040E+02  3020   0.411E+01    0.249E+02
RMM:   5    -0.113484406237E+04    0.47491E+02   -0.23166E+01  2734   0.297E+01    0.231E+02
RMM:   6    -0.112875761557E+04    0.60864E+01   -0.24527E+01  2870   0.241E+01    0.235E+02
RMM:   7    -0.111662885570E+04    0.12129E+02   -0.22047E+01  3011   0.232E+01    0.212E+02
RMM:   8    -0.115472319380E+04   -0.38094E+02   -0.18334E+01  2769   0.239E+01    0.216E+02
RMM:   9    -0.123714850714E+04   -0.82425E+02   -0.96051E+01  2991   0.300E+01    0.211E+02
RMM:  10    -0.119325417152E+04    0.43894E+02   -0.12855E+02  2635   0.338E+01    0.197E+02
RMM:  11    -0.114729381222E+04    0.45960E+02   -0.17868E+02  2357   0.280E+01    0.169E+02
RMM:  12    -0.124229234905E+04   -0.94999E+02   -0.24217E+02  2090   0.377E+01    0.193E+02
RMM:  13    -0.120198793711E+04    0.40304E+02   -0.69696E+01  2214   0.145E+01    0.160E+02
RMM:  14    -0.119106844549E+04    0.10919E+02   -0.29461E+01  2053   0.123E+01    0.156E+02
RMM:  15    -0.115238828323E+04    0.38680E+02   -0.43781E+01  2057   0.142E+01    0.135E+02
RMM:  16    -0.114671296442E+04    0.56753E+01   -0.13503E+01  2197   0.773E+00    0.125E+02
RMM:  17    -0.115074649123E+04   -0.40335E+01   -0.17725E+01  2023   0.988E+00    0.125E+02
RMM:  18    -0.112824945295E+04    0.22497E+02   -0.76497E+00  2033   0.590E+00    0.114E+02
RMM:  19    -0.112940647159E+04   -0.11570E+01   -0.12645E+01  2008   0.817E+00    0.117E+02
RMM:  20    -0.110488452691E+04    0.24522E+02   -0.12921E+01  2020   0.820E+00    0.107E+02
RMM:  21    -0.108655909617E+04    0.18325E+02   -0.10126E+01  2182   0.617E+00    0.930E+01
RMM:  22    -0.107188629743E+04    0.14673E+02   -0.68078E+00  2054   0.538E+00    0.832E+01
RMM:  23    -0.106537085528E+04    0.65154E+01   -0.23510E+00  2080   0.333E+00    0.838E+01
RMM:  24    -0.106160605744E+04    0.37648E+01   -0.72039E-01  2421   0.149E+00    0.764E+01
RMM:  25    -0.106182445246E+04   -0.21840E+00   -0.16880E-01  2551   0.554E-01    0.789E+01
RMM:  26    -0.106160273771E+04    0.22171E+00   -0.44703E-02  2600   0.253E-01    0.776E+01
RMM:  27    -0.106123351959E+04    0.36922E+00   -0.13769E-01  2037   0.729E-01    0.751E+01
RMM:  28    -0.106125401014E+04   -0.20491E-01   -0.52563E-02  2269   0.388E-01    0.753E+01
RMM:  29    -0.106121468114E+04    0.39329E-01   -0.54473E-01  2047   0.148E+00    0.752E+01
RMM:  30    -0.106070485819E+04    0.50982E+00   -0.11666E-01  2441   0.597E-01    0.743E+01
RMM:  31    -0.106079097464E+04   -0.86116E-01   -0.27067E-02  2187   0.334E-01    0.744E+01
RMM:  32    -0.106154947623E+04   -0.75850E+00   -0.25626E-01  2048   0.986E-01    0.756E+01
RMM:  33    -0.106160894589E+04   -0.59470E-01   -0.62111E-02  2468   0.399E-01    0.756E+01
RMM:  34    -0.106148603177E+04    0.12291E+00   -0.23975E-02  2150   0.311E-01    0.751E+01
RMM:  35    -0.106155067490E+04   -0.64643E-01   -0.22186E-02  2086   0.294E-01    0.752E+01
RMM:  36    -0.106164288566E+04   -0.92211E-01   -0.13589E-02  2121   0.222E-01    0.756E+01
RMM:  37    -0.106149398166E+04    0.14890E+00   -0.48148E-03  2132   0.138E-01    0.754E+01
RMM:  38    -0.106152945690E+04   -0.35475E-01   -0.12574E-03  2539   0.524E-02    0.755E+01
RMM:  39    -0.106152803820E+04    0.14187E-02   -0.42372E-04  2209   0.384E-02    0.755E+01
RMM:  40    -0.106100250065E+04    0.52554E+00   -0.24967E-02  2017   0.341E-01    0.757E+01
RMM:  41    -0.106012979440E+04    0.87271E+00   -0.21620E-01  2057   0.878E-01    0.766E+01
RMM:  42    -0.105846432018E+04    0.16655E+01   -0.52475E-01  2097   0.131E+00    0.761E+01
RMM:  43    -0.105824760171E+04    0.21672E+00   -0.15592E-01  2465   0.581E-01    0.759E+01
RMM:  44    -0.105823178559E+04    0.15816E-01   -0.37010E-02  2443   0.357E-01    0.759E+01
RMM:  45    -0.105826379696E+04   -0.32011E-01   -0.18248E-02  2235   0.217E-01    0.760E+01
RMM:  46    -0.105830138767E+04   -0.37591E-01   -0.38842E-02  2023   0.420E-01    0.762E+01
RMM:  47    -0.120804461238E+04   -0.14974E+03   -0.21418E+02  2037   0.322E+01    0.218E+02
RMM:  48    -0.104449356860E+04    0.16355E+03   -0.40229E+01  2045   0.142E+01    0.149E+02
RMM:  49    -0.111967443266E+04   -0.75181E+02   -0.20991E+02  2187   0.270E+01    0.253E+02
RMM:  50    -0.105021511276E+04    0.69459E+02   -0.11444E+01  2237   0.666E+00    0.130E+02
RMM:  51    -0.101745210681E+04    0.32763E+02   -0.92343E+00  2057   0.683E+00    0.107E+02
RMM:  52    -0.115186726418E+04   -0.13442E+03   -0.38427E+02  2530   0.327E+01    0.264E+02
RMM:  53    -0.232857095080E+04   -0.11767E+04   -0.15023E+03  2671   0.327E+01    0.771E+02
RMM:  54    -0.267454958847E+04   -0.34598E+03    0.56453E+02  2778   0.153E+01    0.787E+02
RMM:  55    -0.172085810993E+04    0.95369E+03   -0.95357E+01  2755   0.726E+00    0.609E+02
RMM:  56    -0.150818001219E+04    0.21268E+03   -0.68757E+02  2676   0.237E+01    0.299E+02
RMM:  57    -0.115683833502E+04    0.35134E+03   -0.41931E+02  2598   0.199E+01    0.159E+02
RMM:  58    -0.138860388207E+04   -0.23177E+03   -0.89788E+02  2802   0.207E+01    0.206E+02
RMM:  59    -0.105709320295E+04    0.33151E+03   -0.39284E+02  2538   0.297E+01    0.176E+02
RMM:  60    -0.790853443924E+04   -0.68514E+04   -0.66509E+02  2127   0.283E+02    0.266E+03
RMM:  61    -0.122192050566E+05   -0.43107E+04    0.60439E+03  2061   0.321E+02    0.145E+03
RMM:  62    -0.965961612962E+03    0.11253E+05   -0.59372E+02  2716   0.377E+01    0.218E+02
RMM:  63    -0.475094239787E+04   -0.37850E+04   -0.98095E+03  3271   0.166E+02    0.239E+03
RMM:  64    -0.168767009631E+04    0.30633E+04   -0.15663E+03  3312   0.718E+01    0.274E+02
RMM:  65    -0.137339315890E+04    0.31428E+03   -0.13943E+03  2998   0.598E+01    0.234E+02
RMM:  66    -0.936498524177E+03    0.43689E+03   -0.32791E+02  3143   0.258E+01    0.171E+02
RMM:  67    -0.673808291067E+03    0.26269E+03   -0.27333E+02  2958   0.268E+01    0.176E+02
RMM:  68    -0.227576637274E+04   -0.16020E+04    0.34433E+03  2471   0.172E+02    0.225E+03
RMM:  69    -0.334633225922E+04   -0.10706E+04    0.83305E+02  2540   0.218E+02    0.146E+03
RMM:  70     0.400249627854E+03    0.37466E+04   -0.37257E+03  2858   0.881E+01    0.155E+02
RMM:  71    -0.156619567504E+05   -0.16062E+05   -0.54268E+03  2481   0.596E+02    0.465E+02
RMM:  72    -0.884068068689E+03    0.14778E+05   -0.90783E+02  2909   0.395E+01    0.147E+02
RMM:  73    -0.291798084812E+04   -0.20339E+04   -0.63332E+03  2797   0.142E+02    0.545E+02
RMM:  74    -0.167884007017E+04    0.12391E+04   -0.22045E+02  3222   0.797E+01    0.560E+02
RMM:  75    -0.541653013811E+04   -0.37377E+04   -0.15394E+04  2977   0.127E+02    0.559E+02
RMM:  76    -0.190340728402E+04    0.35131E+04   -0.23436E+03  3100   0.889E+01    0.470E+02
RMM:  77    -0.224924335289E+04   -0.34584E+03   -0.47352E+03  3324   0.789E+01    0.585E+02
RMM:  78    -0.448222163942E+04   -0.22330E+04   -0.29880E+03  3447   0.480E+01    0.952E+02
RMM:  79    -0.298190719732E+04    0.15003E+04   -0.29551E+02  2972   0.299E+01    0.775E+02
RMM:  80    -0.244665298678E+05   -0.21485E+05   -0.13694E+05  2225   0.110E+03    0.106E+03
RMM:  81    -0.714481936263E+03    0.23752E+05   -0.85105E+03  2198   0.190E+02    0.342E+02
RMM:  82    -0.119543183906E+05   -0.11240E+05   -0.11252E+04  2771   0.156E+02    0.172E+03
RMM:  83    -0.110984593306E+04    0.10844E+05   -0.22743E+03  2910   0.301E+01    0.494E+02
RMM:  84    -0.814923500435E+03    0.29492E+03   -0.33356E+02  2146   0.386E+01    0.109E+02
RMM:  85    -0.879646993247E+03   -0.64723E+02   -0.23801E+02  2421   0.205E+01    0.106E+02
RMM:  86    -0.851921791497E+03    0.27725E+02   -0.83585E+01  2114   0.239E+01    0.996E+01
RMM:  87    -0.107376396095E+04   -0.22184E+03   -0.24003E+02  2090   0.307E+01    0.127E+02
RMM:  88    -0.106220860640E+04    0.11555E+02   -0.69772E+01  2035   0.194E+01    0.112E+02
RMM:  89    -0.104910015226E+04    0.13108E+02   -0.20533E+01  2207   0.941E+00    0.886E+01
RMM:  90    -0.105216145461E+04   -0.30613E+01   -0.16091E+01  2254   0.715E+00    0.974E+01
RMM:  91    -0.104517139248E+04    0.69901E+01   -0.18392E+01  2090   0.794E+00    0.798E+01
RMM:  92    -0.107246661310E+04   -0.27295E+02   -0.18590E+01  2071   0.938E+00    0.118E+02
RMM:  93    -0.104314245042E+04    0.29324E+02   -0.19118E+01  2031   0.991E+00    0.801E+01
RMM:  94    -0.103740805285E+04    0.57344E+01   -0.54254E+00  2082   0.497E+00    0.711E+01
RMM:  95    -0.103747722712E+04   -0.69174E-01   -0.62398E+00  1997   0.665E+00    0.724E+01
RMM:  96    -0.103748344353E+04   -0.62164E-02   -0.44262E+00  2051   0.528E+00    0.717E+01
RMM:  97    -0.103495392301E+04    0.25295E+01   -0.48537E+00  2032   0.541E+00    0.687E+01
RMM:  98    -0.103335922739E+04    0.15947E+01   -0.22218E+00  2018   0.345E+00    0.627E+01
RMM:  99    -0.103296886913E+04    0.39036E+00   -0.11935E+00  2103   0.240E+00    0.611E+01
RMM: 100    -0.103630268735E+04   -0.33338E+01   -0.61293E+00  2106   0.546E+00    0.737E+01
RMM: 101    -0.103270388368E+04    0.35988E+01   -0.68470E+00  2107   0.639E+00    0.595E+01
RMM: 102    -0.103663047968E+04   -0.39266E+01   -0.24438E+00  2215   0.303E+00    0.698E+01
RMM: 103    -0.103296206217E+04    0.36684E+01   -0.31168E+00  2018   0.372E+00    0.563E+01
RMM: 104    -0.103239948629E+04    0.56258E+00   -0.83392E-01  2240   0.187E+00    0.550E+01
RMM: 105    -0.103232091104E+04    0.78575E-01   -0.60465E-01  2137   0.162E+00    0.540E+01
