       N       E                     dE             d eps       ncg     rms          rms(c)
DAV:   1     0.832699833199E+04    0.83270E+04   -0.32609E+05  1992   0.134E+03
DAV:   2     0.849931561484E+03   -0.74771E+04   -0.67296E+04  2292   0.412E+02
DAV:   3    -0.116833630042E+04   -0.20183E+04   -0.19154E+04  3372   0.212E+02
DAV:   4    -0.133129487845E+04   -0.16296E+03   -0.15208E+03  3144   0.682E+01
DAV:   5    -0.133979441395E+04   -0.84995E+01   -0.78475E+01  3336   0.151E+01    0.154E+02
RMM:   6    -0.181906798966E+04   -0.47927E+03   -0.32660E+03  2604   0.133E+02    0.494E+02
RMM:   7    -0.158855178759E+04    0.23052E+03   -0.23866E+02  2007   0.455E+01    0.300E+02
RMM:   8    -0.119950479464E+04    0.38905E+03   -0.51901E+02  2202   0.464E+01    0.123E+02
RMM:   9    -0.127511949674E+04   -0.75615E+02   -0.14726E+02  2178   0.251E+01    0.150E+02
RMM:  10    -0.136650387937E+04   -0.91384E+02   -0.70021E+01  2232   0.165E+01    0.162E+02
RMM:  11    -0.122753940492E+04    0.13896E+03   -0.42862E+01  2037   0.145E+01    0.118E+02
RMM:  12    -0.130750324459E+04   -0.79964E+02   -0.79343E+01  2022   0.202E+01    0.147E+02
RMM:  13    -0.128712055536E+04    0.20383E+02   -0.87076E+01  2044   0.203E+01    0.151E+02
RMM:  14    -0.115564477744E+04    0.13148E+03   -0.62758E+01  2071   0.178E+01    0.106E+02
RMM:  15    -0.116682055334E+04   -0.11176E+02   -0.43745E+01  2076   0.145E+01    0.106E+02
RMM:  16    -0.112959672733E+04    0.37224E+02   -0.34259E+01  2139   0.119E+01    0.896E+01
RMM:  17    -0.111217930490E+04    0.17417E+02   -0.15349E+01  2172   0.812E+00    0.651E+01
RMM:  18    -0.111141759505E+04    0.76171E+00   -0.14436E+01  2081   0.809E+00    0.563E+01
RMM:  19    -0.110869337485E+04    0.27242E+01   -0.83503E+00  2112   0.637E+00    0.555E+01
RMM:  20    -0.110605737122E+04    0.26360E+01   -0.24794E+00  2196   0.322E+00    0.473E+01
RMM:  21    -0.110489925819E+04    0.11581E+01   -0.13954E+00  2146   0.243E+00    0.412E+01
RMM:  22    -0.110379369143E+04    0.11056E+01   -0.76202E-01  2137   0.186E+00    0.349E+01
RMM:  23    -0.110419370368E+04   -0.40001E+00   -0.38282E-01  2074   0.139E+00    0.356E+01
RMM:  24    -0.110383465188E+04    0.35905E+00   -0.15159E-01  2200   0.828E-01    0.329E+01
RMM:  25    -0.110418387488E+04   -0.34922E+00   -0.18683E-01  2110   0.848E-01    0.357E+01
RMM:  26    -0.110426489253E+04   -0.81018E-01   -0.71187E-02  2062   0.593E-01    0.365E+01
RMM:  27    -0.110469778802E+04   -0.43290E+00   -0.51297E-02  2134   0.445E-01    0.379E+01
RMM:  28    -0.110458005397E+04    0.11773E+00   -0.36697E-02  2058   0.421E-01    0.380E+01
RMM:  29    -0.110485321483E+04   -0.27316E+00   -0.10094E-01  2117   0.623E-01    0.377E+01
RMM:  30    -0.110480450437E+04    0.48710E-01   -0.50332E-02  2018   0.469E-01    0.372E+01
RMM:  31    -0.110522611637E+04   -0.42161E+00   -0.43895E-02  2110   0.385E-01    0.374E+01
RMM:  32    -0.110534120471E+04   -0.11509E+00   -0.40451E-02  2117   0.372E-01    0.384E+01
RMM:  33    -0.110552508657E+04   -0.18388E+00   -0.21167E-01  2112   0.862E-01    0.376E+01
RMM:  34    -0.110544277278E+04    0.82314E-01   -0.59921E-02  2077   0.514E-01    0.364E+01
RMM:  35    -0.110527094101E+04    0.17183E+00   -0.31835E-02  2099   0.379E-01    0.364E+01
RMM:  36    -0.110550368225E+04   -0.23274E+00   -0.18429E-02  2085   0.288E-01    0.370E+01
RMM:  37    -0.110550662274E+04   -0.29405E-02   -0.27398E-02  2052   0.371E-01    0.365E+01
RMM:  38    -0.110561766565E+04   -0.11104E+00   -0.16625E-02  2042   0.285E-01    0.365E+01
RMM:  39    -0.110803094313E+04   -0.24133E+01   -0.49960E-01  2076   0.125E+00    0.391E+01
RMM:  40    -0.110914224818E+04   -0.11113E+01   -0.42707E-01  2108   0.121E+00    0.370E+01
RMM:  41    -0.111116432040E+04   -0.20221E+01   -0.39348E-01  2099   0.115E+00    0.402E+01
RMM:  42    -0.111177455139E+04   -0.61023E+00   -0.49106E-01  2104   0.137E+00    0.390E+01
RMM:  43    -0.111245489315E+04   -0.68034E+00   -0.12139E-01  2219   0.682E-01    0.395E+01
RMM:  44    -0.111245073057E+04    0.41626E-02   -0.30569E-02  2352   0.333E-01    0.397E+01
RMM:  45    -0.111227575332E+04    0.17498E+00   -0.89996E-03  2308   0.165E-01    0.395E+01
RMM:  46    -0.111255305080E+04   -0.27730E+00   -0.65834E-02  2091   0.518E-01    0.395E+01
RMM:  47    -0.111279882737E+04   -0.24578E+00   -0.67982E-02  2087   0.561E-01    0.393E+01
RMM:  48    -0.111560374366E+04   -0.28049E+01   -0.10734E+00  2051   0.200E+00    0.438E+01
RMM:  49    -0.111526833055E+04    0.33541E+00   -0.60744E-01  2144   0.149E+00    0.381E+01
RMM:  50    -0.111802297423E+04   -0.27546E+01   -0.12642E+00  2092   0.183E+00    0.390E+01
RMM:  51    -0.112028483057E+04   -0.22619E+01   -0.11183E+01  2010   0.689E+00    0.557E+01
RMM:  52    -0.111874551673E+04    0.15393E+01   -0.20319E+00  2217   0.290E+00    0.448E+01
RMM:  53    -0.111845047905E+04    0.29504E+00   -0.73151E-01  2356   0.150E+00    0.478E+01
RMM:  54    -0.111806506700E+04    0.38541E+00   -0.19965E-01  2358   0.704E-01    0.482E+01
RMM:  55    -0.111819272393E+04   -0.12766E+00   -0.30688E-02  2476   0.295E-01    0.488E+01
RMM:  56    -0.112078021237E+04   -0.25875E+01   -0.16355E+00  2043   0.256E+00    0.484E+01
RMM:  57    -0.111956159422E+04    0.12186E+01   -0.42597E-01  2005   0.146E+00    0.496E+01
RMM:  58    -0.111909930861E+04    0.46229E+00   -0.21323E-01  2201   0.894E-01    0.495E+01
RMM:  59    -0.111770516914E+04    0.13941E+01   -0.29457E-01  2081   0.970E-01    0.506E+01
RMM:  60    -0.111491132188E+04    0.27938E+01   -0.67636E-01  2054   0.167E+00    0.478E+01
RMM:  61    -0.111489563027E+04    0.15692E-01   -0.12631E+00  2096   0.231E+00    0.500E+01
RMM:  62    -0.111789251851E+04   -0.29969E+01   -0.94528E-01  2036   0.218E+00    0.508E+01
RMM:  63    -0.111217062630E+04    0.57219E+01   -0.11327E+00  2022   0.223E+00    0.470E+01
RMM:  64    -0.111050165236E+04    0.16690E+01   -0.48968E-01  2092   0.148E+00    0.456E+01
RMM:  65    -0.110981889637E+04    0.68276E+00   -0.14972E-01  2300   0.788E-01    0.445E+01
RMM:  66    -0.112038331454E+04   -0.10564E+02   -0.39247E+00  2095   0.392E+00    0.627E+01
RMM:  67    -0.110897415864E+04    0.11409E+02   -0.32140E+00  2039   0.397E+00    0.450E+01
RMM:  68    -0.110796881808E+04    0.10053E+01   -0.83251E-01  2106   0.203E+00    0.455E+01
RMM:  69    -0.109908266395E+04    0.88862E+01   -0.95625E-01  2065   0.197E+00    0.423E+01
RMM:  70    -0.109747962956E+04    0.16030E+01   -0.46323E-01  2104   0.149E+00    0.443E+01
RMM:  71    -0.112217732114E+04   -0.24698E+02   -0.12177E+01  2124   0.575E+00    0.480E+01
RMM:  72    -0.112272145641E+04   -0.54414E+00   -0.21984E+00  2057   0.315E+00    0.451E+01
RMM:  73    -0.112121677677E+04    0.15047E+01   -0.17685E+00  2075   0.268E+00    0.427E+01
RMM:  74    -0.112035749209E+04    0.85928E+00   -0.12291E+00  2119   0.225E+00    0.366E+01
RMM:  75    -0.111904696772E+04    0.13105E+01   -0.12356E+00  2083   0.209E+00    0.366E+01
RMM:  76    -0.113040859048E+04   -0.11362E+02   -0.46515E+00  2032   0.402E+00    0.388E+01
RMM:  77    -0.113326669582E+04   -0.28581E+01   -0.17008E+00  2075   0.259E+00    0.417E+01
RMM:  78    -0.113213784905E+04    0.11288E+01   -0.98977E-01  2168   0.195E+00    0.320E+01
RMM:  79    -0.113302191411E+04   -0.88407E+00   -0.49883E-01  2189   0.130E+00    0.315E+01
RMM:  80    -0.113379997043E+04   -0.77806E+00   -0.29344E-01  2241   0.974E-01    0.331E+01
RMM:  81    -0.113540381208E+04   -0.16038E+01   -0.31922E+00  1998   0.289E+00    0.349E+01
RMM:  82    -0.113668768283E+04   -0.12839E+01   -0.10445E+00  2018   0.198E+00    0.340E+01
RMM:  83    -0.113716733874E+04   -0.47966E+00   -0.41812E-01  2294   0.110E+00    0.329E+01
RMM:  84    -0.113738426289E+04   -0.21692E+00   -0.15558E-01  2210   0.660E-01    0.345E+01
RMM:  85    -0.113705357609E+04    0.33069E+00   -0.80083E-02  2081   0.599E-01    0.316E+01
RMM:  86    -0.114266938742E+04   -0.56158E+01   -0.29645E+00  2087   0.342E+00    0.603E+01
RMM:  87    -0.113782950142E+04    0.48399E+01   -0.17576E+00  2067   0.285E+00    0.344E+01
RMM:  88    -0.113782685484E+04    0.26466E-02   -0.62233E-01  2125   0.165E+00    0.258E+01
RMM:  89    -0.113892233200E+04   -0.10955E+01   -0.32144E-01  2154   0.118E+00    0.275E+01
RMM:  90    -0.113913109474E+04   -0.20876E+00   -0.24633E-01  2196   0.983E-01    0.268E+01
RMM:  91    -0.114037774560E+04   -0.12467E+01   -0.57885E-01  2088   0.151E+00    0.354E+01
RMM:  92    -0.113979039558E+04    0.58735E+00   -0.45467E-01  2099   0.144E+00    0.326E+01
RMM:  93    -0.113913217486E+04    0.65822E+00   -0.31671E-01  2110   0.117E+00    0.264E+01
RMM:  94    -0.113969017399E+04   -0.55800E+00   -0.12696E-01  2066   0.736E-01    0.271E+01
RMM:  95    -0.113974196827E+04   -0.51794E-01   -0.57470E-02  2161   0.523E-01    0.256E+01
RMM:  96    -0.113978276281E+04   -0.40795E-01   -0.11998E+00  2083   0.204E+00    0.299E+01
RMM:  97    -0.113973852932E+04    0.44233E-01   -0.55888E-01  2091   0.155E+00    0.225E+01
RMM:  98    -0.114042316469E+04   -0.68464E+00   -0.50842E-01  2220   0.137E+00    0.279E+01
RMM:  99    -0.113995561383E+04    0.46755E+00   -0.50711E-01  2131   0.139E+00    0.163E+01
RMM: 100    -0.114083993774E+04   -0.88432E+00   -0.29575E-01  2080   0.108E+00    0.141E+01
RMM: 101    -0.114135823743E+04   -0.51830E+00   -0.22735E-01  2206   0.950E-01    0.146E+01
RMM: 102    -0.114167518016E+04   -0.31694E+00   -0.15081E-01  2286   0.708E-01    0.137E+01
RMM: 103    -0.114225247887E+04   -0.57730E+00   -0.17335E-01  2121   0.737E-01    0.153E+01
RMM: 104    -0.114227739745E+04   -0.24919E-01   -0.89447E-02  2174   0.623E-01    0.158E+01
RMM: 105    -0.114262334718E+04   -0.34595E+00   -0.98911E-02  2175   0.533E-01    0.159E+01
RMM: 106    -0.114325099470E+04   -0.62765E+00   -0.29475E-01  2119   0.108E+00    0.151E+01
RMM: 107    -0.114363029840E+04   -0.37930E+00   -0.13225E-01  2089   0.799E-01    0.140E+01
RMM: 108    -0.114397293886E+04   -0.34264E+00   -0.10636E-01  2258   0.561E-01    0.145E+01
RMM: 109    -0.114435195104E+04   -0.37901E+00   -0.13462E-01  2106   0.676E-01    0.164E+01
RMM: 110    -0.114443857737E+04   -0.86626E-01   -0.99310E-02  2311   0.560E-01    0.156E+01
RMM: 111    -0.114435220358E+04    0.86374E-01   -0.24124E-01  2147   0.976E-01    0.159E+01
RMM: 112    -0.114422322086E+04    0.12898E+00   -0.86536E-02  2088   0.683E-01    0.133E+01
RMM: 113    -0.114436430048E+04   -0.14108E+00   -0.41837E-02  2222   0.393E-01    0.127E+01
RMM: 114    -0.114446679195E+04   -0.10249E+00   -0.35940E-02  2125   0.347E-01    0.135E+01
RMM: 115    -0.114456205389E+04   -0.95262E-01   -0.36000E-02  2176   0.354E-01    0.154E+01
RMM: 116    -0.114550487916E+04   -0.94283E+00   -0.30396E-01  2097   0.110E+00    0.203E+01
RMM: 117    -0.114517525601E+04    0.32962E+00   -0.16106E-01  2105   0.857E-01    0.148E+01
RMM: 118    -0.114560014216E+04   -0.42489E+00   -0.95253E-02  2141   0.643E-01    0.131E+01
RMM: 119    -0.114589168436E+04   -0.29154E+00   -0.47168E-02  2224   0.419E-01    0.135E+01
RMM: 120    -0.114594688410E+04   -0.55200E-01   -0.28144E-02  2174   0.341E-01
   1 F= -.11537476E+04 E0= -.11537232E+04  d E =-.115375E+04  mag=    22.3822
       N       E                     dE             d eps       ncg     rms          rms(c)
DAV:   1    -0.114569004628E+04    0.20164E+00   -0.29689E+02  2064   0.323E+01    0.168E+01
RMM:   2    -0.117608340196E+04   -0.30393E+02   -0.21224E+01  2130   0.102E+01    0.851E+01
RMM:   3    -0.115090630175E+04    0.25177E+02   -0.13526E+01  2149   0.855E+00    0.304E+01
RMM:   4    -0.115104080691E+04   -0.13451E+00   -0.48034E+00  2270   0.422E+00    0.254E+01
RMM:   5    -0.115095755291E+04    0.83254E-01   -0.17728E+00  2166   0.274E+00    0.309E+01
RMM:   6    -0.115003133489E+04    0.92622E+00   -0.90072E-01  2165   0.195E+00    0.175E+01
RMM:   7    -0.115059445059E+04   -0.56312E+00   -0.56708E-01  2105   0.163E+00    0.169E+01
RMM:   8    -0.115049710003E+04    0.97351E-01   -0.42914E-01  2116   0.134E+00    0.123E+01
RMM:   9    -0.115067267288E+04   -0.17557E+00   -0.27774E-01  2114   0.115E+00    0.131E+01
RMM:  10    -0.115069700309E+04   -0.24330E-01   -0.16440E-01  2158   0.846E-01    0.113E+01
RMM:  11    -0.115069265951E+04    0.43436E-02   -0.70847E-02  2184   0.548E-01    0.913E+00
RMM:  12    -0.115072035508E+04   -0.27696E-01   -0.21338E-02  2246   0.301E-01    0.924E+00
RMM:  13    -0.115071613180E+04    0.42233E-02   -0.43762E-03  2326   0.121E-01    0.940E+00
RMM:  14    -0.115082012039E+04   -0.10399E+00   -0.41098E-02  2165   0.392E-01    0.998E+00
RMM:  15    -0.115105670769E+04   -0.23659E+00   -0.20223E-01  2154   0.879E-01    0.999E+00
RMM:  16    -0.115123154983E+04   -0.17484E+00   -0.22994E-01  2140   0.976E-01    0.981E+00
RMM:  17    -0.115131831950E+04   -0.86770E-01   -0.19704E-01  2133   0.925E-01    0.738E+00
RMM:  18    -0.115169301538E+04   -0.37470E+00   -0.24337E-01  2197   0.931E-01    0.134E+01
RMM:  19    -0.115165923807E+04    0.33777E-01   -0.14475E-01  2164   0.723E-01    0.974E+00
RMM:  20    -0.115202122702E+04   -0.36199E+00   -0.12152E-01  2096   0.685E-01    0.102E+01
RMM:  21    -0.115217101964E+04   -0.14979E+00   -0.58743E-02  2296   0.469E-01    0.935E+00
RMM:  22    -0.115238038772E+04   -0.20937E+00   -0.35582E-02  2204   0.354E-01    0.797E+00
RMM:  23    -0.115275039531E+04   -0.37001E+00   -0.42929E-02  2083   0.401E-01    0.888E+00
RMM:  24    -0.115305076197E+04   -0.30037E+00   -0.57083E-02  2156   0.449E-01    0.780E+00
RMM:  25    -0.115323056101E+04   -0.17980E+00   -0.40499E-02  2226   0.377E-01    0.537E+00
RMM:  26    -0.115344371480E+04   -0.21315E+00   -0.33940E-02  2172   0.362E-01    0.339E+00
RMM:  27    -0.115363379800E+04   -0.19008E+00   -0.24984E-02  2185   0.318E-01    0.309E+00
RMM:  28    -0.115383541775E+04   -0.20162E+00   -0.12589E-02  2253   0.180E-01    0.262E+00
RMM:  29    -0.115423035883E+04   -0.39494E+00   -0.29266E-02  2036   0.236E-01    0.146E+00
RMM:  30    -0.115434855355E+04   -0.11819E+00   -0.11883E-02  2201   0.199E-01    0.142E+00
RMM:  31    -0.115441257206E+04   -0.64019E-01   -0.62964E-03  2345   0.137E-01    0.129E+00
RMM:  32    -0.115461479105E+04   -0.20222E+00   -0.94312E-03  2079   0.135E-01    0.918E-01
RMM:  33    -0.115494809834E+04   -0.33331E+00   -0.22701E-02  2201   0.186E-01    0.336E+00
RMM:  34    -0.115510693919E+04   -0.15884E+00   -0.15159E-02  2270   0.184E-01    0.260E+00
RMM:  35    -0.115530954942E+04   -0.20261E+00   -0.15028E-02  2311   0.131E-01    0.660E-01
RMM:  36    -0.115552908359E+04   -0.21953E+00   -0.15012E-02  2326   0.148E-01    0.108E+00
RMM:  37    -0.115560653451E+04   -0.77451E-01   -0.55510E-03  2401   0.108E-01    0.987E-01
RMM:  38    -0.115574489079E+04   -0.13836E+00   -0.98314E-03  2248   0.904E-02    0.969E-01
RMM:  39    -0.115584518745E+04   -0.10030E+00   -0.10194E-02  2464   0.102E-01    0.511E-01
RMM:  40    -0.115587357649E+04   -0.28389E-01   -0.35695E-03  2493   0.613E-02    0.308E-01
RMM:  41    -0.115588797049E+04   -0.14394E-01   -0.15546E-03  2476   0.402E-02    0.198E-01
RMM:  42    -0.115589627796E+04   -0.83075E-02   -0.76760E-04  2354   0.302E-02    0.154E-01
RMM:  43    -0.115590191113E+04   -0.56332E-02   -0.52914E-04  2413   0.226E-02    0.149E-01
RMM:  44    -0.115590564338E+04   -0.37322E-02   -0.32173E-04  2362   0.186E-02    0.108E-01
RMM:  45    -0.115590792054E+04   -0.22772E-02   -0.19481E-04  2374   0.150E-02    0.614E-02
RMM:  46    -0.115590906172E+04   -0.11412E-02   -0.96270E-05  2238   0.106E-02    0.465E-02
RMM:  47    -0.115590981081E+04   -0.74909E-03   -0.60060E-05  2168   0.819E-03    0.354E-02
RMM:  48    -0.115591010803E+04   -0.29722E-03   -0.21282E-05  1873   0.567E-03    0.387E-02
RMM:  49    -0.115591032692E+04   -0.21888E-03   -0.13936E-05  1776   0.445E-03    0.475E-02
RMM:  50    -0.115591042325E+04   -0.96331E-04   -0.52917E-06  1517   0.361E-03    0.270E-02
RMM:  51    -0.115591055592E+04   -0.13267E-03   -0.62947E-06  1572   0.301E-03    0.253E-02
RMM:  52    -0.115591061826E+04   -0.62339E-04   -0.35962E-06  1419   0.287E-03    0.172E-02
RMM:  53    -0.115591066018E+04   -0.41920E-04   -0.17331E-06  1257   0.206E-03    0.115E-02
RMM:  54    -0.115591070809E+04   -0.47919E-04   -0.16921E-06  1246   0.190E-03    0.786E-03
RMM:  55    -0.115591076462E+04   -0.56525E-04   -0.24972E-06  1314   0.182E-03    0.635E-03
RMM:  56    -0.115591081062E+04   -0.46003E-04   -0.22959E-06  1292   0.179E-03    0.645E-03
RMM:  57    -0.115591085365E+04   -0.43027E-04   -0.28803E-06  1342   0.178E-03    0.638E-03
RMM:  58    -0.115591087880E+04   -0.25154E-04   -0.18627E-06  1238   0.166E-03    0.485E-03
RMM:  59    -0.115591089414E+04   -0.15332E-04   -0.13678E-06  1183   0.146E-03    0.236E-03
RMM:  60    -0.115591090426E+04   -0.10126E-04   -0.10155E-06  1118   0.133E-03    0.161E-03
RMM:  61    -0.115591091026E+04   -0.60012E-05   -0.78023E-07  1092   0.116E-03    0.174E-03
RMM:  62    -0.115591091400E+04   -0.37393E-05   -0.61258E-07  1072   0.104E-03    0.116E-03
RMM:  63    -0.115591091497E+04   -0.96641E-06   -0.36100E-07   949   0.866E-04
   2 F= -.11637226E+04 E0= -.11637042E+04  d E =-.997499E+01  mag=    21.2415
       N       E                     dE             d eps       ncg     rms          rms(c)
DAV:   1    -0.115591524144E+04   -0.43274E-02   -0.22098E-02  2166   0.277E-01    0.687E-02
RMM:   2    -0.115591569425E+04   -0.45281E-03   -0.52363E-04  2185   0.519E-02    0.663E-01
RMM:   3    -0.115591481876E+04    0.87549E-03   -0.30432E-04  2303   0.376E-02    0.535E-02
RMM:   4    -0.115591530316E+04   -0.48440E-03   -0.13831E-04  1995   0.266E-02    0.165E-01
RMM:   5    -0.115591527946E+04    0.23694E-04   -0.46900E-05  1803   0.143E-02    0.122E-01
RMM:   6    -0.115591526538E+04    0.14078E-04   -0.23668E-05  1630   0.108E-02    0.139E-01
RMM:   7    -0.115591524444E+04    0.20946E-04   -0.16472E-05  1539   0.850E-03    0.891E-02
RMM:   8    -0.115591526455E+04   -0.20114E-04   -0.82102E-06  1451   0.674E-03    0.619E-02
RMM:   9    -0.115591527412E+04   -0.95678E-05   -0.51303E-06  1394   0.510E-03    0.374E-02
RMM:  10    -0.115591528328E+04   -0.91593E-05   -0.51012E-06  1407   0.536E-03    0.268E-02
RMM:  11    -0.115591528683E+04   -0.35502E-05   -0.34466E-06  1361   0.482E-03    0.329E-02
RMM:  12    -0.115591528344E+04    0.33890E-05   -0.18080E-06  1283   0.332E-03    0.353E-02
RMM:  13    -0.115591528055E+04    0.28856E-05   -0.10373E-06  1219   0.271E-03    0.269E-02
RMM:  14    -0.115591528165E+04   -0.10954E-05   -0.40931E-07  1149   0.170E-03    0.181E-02
RMM:  15    -0.115591528463E+04   -0.29835E-05   -0.21689E-07  1121   0.116E-03    0.910E-03
RMM:  16    -0.115591528755E+04   -0.29188E-05   -0.16125E-07  1053   0.102E-03    0.416E-03
RMM:  17    -0.115591528924E+04   -0.16907E-05   -0.11770E-07  1037   0.909E-04    0.454E-03
RMM:  18    -0.115591528961E+04   -0.36529E-06   -0.66576E-08   983   0.733E-04
   3 F= -.11637270E+04 E0= -.11637086E+04  d E =-.997938E+01  mag=    21.2421
       N       E                     dE             d eps       ncg     rms          rms(c)
DAV:   1    -0.115591527881E+04    0.10434E-04   -0.40134E+01  2046   0.119E+01    0.302E+00
RMM:   2    -0.115645314950E+04   -0.53787E+00   -0.10294E+00  2188   0.225E+00    0.150E+01
RMM:   3    -0.115600420012E+04    0.44895E+00   -0.37866E-01  2370   0.129E+00    0.469E+00
RMM:   4    -0.115620203552E+04   -0.19784E+00   -0.20091E-01  2271   0.912E-01    0.133E+01
RMM:   5    -0.115598372855E+04    0.21831E+00   -0.61304E-02  2273   0.525E-01    0.519E+00
RMM:   6    -0.115611326209E+04   -0.12953E+00   -0.57877E-02  2187   0.499E-01    0.100E+01
RMM:   7    -0.115601134756E+04    0.10191E+00   -0.49431E-02  2116   0.493E-01    0.532E+00
RMM:   8    -0.115599854350E+04    0.12804E-01   -0.23295E-02  2192   0.326E-01    0.327E+00
RMM:   9    -0.115600959661E+04   -0.11053E-01   -0.18970E-02  2218   0.266E-01    0.224E+00
RMM:  10    -0.115601164949E+04   -0.20529E-02   -0.11402E-02  2225   0.225E-01    0.215E+00
RMM:  11    -0.115600829499E+04    0.33545E-02   -0.50923E-03  2249   0.154E-01    0.160E+00
RMM:  12    -0.115600850457E+04   -0.20958E-03   -0.38242E-03  2222   0.138E-01    0.146E+00
RMM:  13    -0.115600817260E+04    0.33198E-03   -0.32285E-03  2281   0.117E-01    0.129E+00
RMM:  14    -0.115600805521E+04    0.11739E-03   -0.28934E-03  2293   0.111E-01    0.939E-01
RMM:  15    -0.115600959488E+04   -0.15397E-02   -0.16698E-03  2333   0.821E-02    0.802E-01
RMM:  16    -0.115601064281E+04   -0.10479E-02   -0.11590E-03  2187   0.711E-02    0.903E-01
RMM:  17    -0.115601064437E+04   -0.15631E-05   -0.60581E-04  2199   0.525E-02    0.759E-01
RMM:  18    -0.115601129983E+04   -0.65546E-03   -0.28759E-04  2213   0.354E-02    0.602E-01
RMM:  19    -0.115601217631E+04   -0.87648E-03   -0.19598E-04  2196   0.282E-02    0.536E-01
RMM:  20    -0.115601359276E+04   -0.14164E-02   -0.26930E-04  2232   0.308E-02    0.571E-01
RMM:  21    -0.115601433085E+04   -0.73810E-03   -0.26551E-04  2251   0.311E-02    0.473E-01
RMM:  22    -0.115601462077E+04   -0.28991E-03   -0.12214E-04  2139   0.205E-02    0.435E-01
RMM:  23    -0.115601503346E+04   -0.41269E-03   -0.67908E-05  2025   0.149E-02    0.389E-01
RMM:  24    -0.115601548759E+04   -0.45413E-03   -0.55356E-05  2027   0.139E-02    0.316E-01
RMM:  25    -0.115601595834E+04   -0.47075E-03   -0.55624E-05  2161   0.116E-02    0.244E-01
RMM:  26    -0.115601620918E+04   -0.25084E-03   -0.32407E-05  1956   0.994E-03    0.215E-01
RMM:  27    -0.115601636009E+04   -0.15091E-03   -0.22120E-05  1926   0.753E-03    0.208E-01
RMM:  28    -0.115601645584E+04   -0.95757E-04   -0.12982E-05  1735   0.631E-03    0.193E-01
RMM:  29    -0.115601658109E+04   -0.12524E-03   -0.21973E-05  2001   0.697E-03    0.135E-01
RMM:  30    -0.115601668567E+04   -0.10458E-03   -0.23242E-05  2046   0.788E-03    0.114E-01
RMM:  31    -0.115601671916E+04   -0.33487E-04   -0.12451E-05  1767   0.645E-03    0.854E-02
RMM:  32    -0.115601674678E+04   -0.27619E-04   -0.10185E-05  1765   0.498E-03    0.307E-02
RMM:  33    -0.115601678910E+04   -0.42324E-04   -0.69893E-06  1633   0.470E-03    0.347E-02
RMM:  34    -0.115601681130E+04   -0.22194E-04   -0.57999E-06  1571   0.432E-03    0.211E-02
RMM:  35    -0.115601689924E+04   -0.87945E-04   -0.22669E-06  1303   0.302E-03    0.797E-03
RMM:  36    -0.115601693758E+04   -0.38337E-04   -0.16224E-06  1244   0.227E-03    0.797E-03
RMM:  37    -0.115601698094E+04   -0.43360E-04   -0.15196E-06  1233   0.202E-03    0.726E-03
RMM:  38    -0.115601703784E+04   -0.56902E-04   -0.19621E-06  1274   0.188E-03    0.571E-03
RMM:  39    -0.115601707704E+04   -0.39205E-04   -0.16402E-06  1225   0.185E-03    0.819E-03
RMM:  40    -0.115601712116E+04   -0.44114E-04   -0.28502E-06  1358   0.208E-03    0.471E-03
RMM:  41    -0.115601713826E+04   -0.17104E-04   -0.14264E-06  1176   0.175E-03    0.280E-03
RMM:  42    -0.115601714900E+04   -0.10742E-04   -0.13530E-06  1181   0.158E-03    0.248E-03
RMM:  43    -0.115601715463E+04   -0.56229E-05   -0.91504E-07  1139   0.146E-03    0.248E-03
RMM:  44    -0.115601715606E+04   -0.14308E-05   -0.73733E-07  1114   0.120E-03    0.236E-03
RMM:  45    -0.115601715633E+04   -0.27229E-06   -0.51611E-07  1067   0.110E-03
   4 F= -.11638270E+04 E0= -.11638082E+04  d E =-.100793E+02  mag=    21.2946
       N       E                     dE             d eps       ncg     rms          rms(c)
DAV:   1    -0.115603740986E+04   -0.20254E-01   -0.70088E+01  2004   0.144E+01    0.386E+00
RMM:   2    -0.115713480800E+04   -0.10974E+01   -0.18798E+00  2202   0.291E+00    0.228E+01
RMM:   3    -0.115614749036E+04    0.98732E+00   -0.66329E-01  2364   0.166E+00    0.572E+00
RMM:   4    -0.115634655983E+04   -0.19907E+00   -0.29519E-01  2224   0.109E+00    0.101E+01
RMM:   5    -0.115620053523E+04    0.14602E+00   -0.11362E-01  2271   0.662E-01    0.552E+00
RMM:   6    -0.115619325030E+04    0.72849E-02   -0.67540E-02  2240   0.547E-01    0.363E+00
RMM:   7    -0.115618292961E+04    0.10321E-01   -0.35816E-02  2217   0.419E-01    0.255E+00
RMM:   8    -0.115618569878E+04   -0.27692E-02   -0.32608E-02  2206   0.375E-01    0.244E+00
RMM:   9    -0.115618746772E+04   -0.17689E-02   -0.19511E-02  2252   0.298E-01    0.335E+00
RMM:  10    -0.115618308519E+04    0.43825E-02   -0.11964E-02  2172   0.237E-01    0.271E+00
RMM:  11    -0.115619304295E+04   -0.99578E-02   -0.78233E-03  2250   0.168E-01    0.325E+00
RMM:  12    -0.115619321802E+04   -0.17508E-03   -0.51231E-03  2244   0.120E-01    0.289E+00
RMM:  13    -0.115619505069E+04   -0.18327E-02   -0.62013E-03  2222   0.143E-01    0.226E+00
RMM:  14    -0.115619652759E+04   -0.14769E-02   -0.96197E-03  2257   0.177E-01    0.999E-01
RMM:  15    -0.115620143753E+04   -0.49099E-02   -0.58906E-03  2208   0.161E-01    0.141E+00
RMM:  16    -0.115620060431E+04    0.83323E-03   -0.31322E-03  2256   0.121E-01    0.103E+00
RMM:  17    -0.115620074331E+04   -0.13900E-03   -0.20841E-03  2240   0.918E-02    0.735E-01
RMM:  18    -0.115620111090E+04   -0.36759E-03   -0.15903E-03  2193   0.862E-02    0.606E-01
RMM:  19    -0.115620089047E+04    0.22043E-03   -0.91802E-04  2186   0.645E-02    0.500E-01
RMM:  20    -0.115620091323E+04   -0.22763E-04   -0.52403E-04  2218   0.476E-02    0.518E-01
RMM:  21    -0.115620049237E+04    0.42086E-03   -0.32820E-04  2183   0.379E-02    0.322E-01
RMM:  22    -0.115620062519E+04   -0.13282E-03   -0.13908E-04  2158   0.245E-02    0.261E-01
RMM:  23    -0.115620085164E+04   -0.22645E-03   -0.12275E-04  2138   0.218E-02    0.275E-01
RMM:  24    -0.115620091238E+04   -0.60735E-04   -0.10975E-04  2142   0.206E-02    0.247E-01
RMM:  25    -0.115620096756E+04   -0.55183E-04   -0.70636E-05  2149   0.150E-02    0.159E-01
RMM:  26    -0.115620104695E+04   -0.79390E-04   -0.47982E-05  2036   0.130E-02    0.986E-02
RMM:  27    -0.115620114762E+04   -0.10067E-03   -0.29582E-05  1918   0.981E-03    0.848E-02
RMM:  28    -0.115620131649E+04   -0.16887E-03   -0.21221E-05  1828   0.810E-03    0.107E-01
RMM:  29    -0.115620146423E+04   -0.14774E-03   -0.17165E-05  1731   0.755E-03    0.961E-02
RMM:  30    -0.115620176921E+04   -0.30498E-03   -0.23012E-05  2006   0.699E-03    0.253E-02
RMM:  31    -0.115620196726E+04   -0.19804E-03   -0.11244E-05  1733   0.585E-03    0.210E-02
RMM:  32    -0.115620227630E+04   -0.30905E-03   -0.10323E-05  1727   0.441E-03    0.176E-02
RMM:  33    -0.115620267865E+04   -0.40235E-03   -0.12181E-05  1828   0.434E-03    0.206E-02
RMM:  34    -0.115620292998E+04   -0.25133E-03   -0.60632E-06  1581   0.307E-03    0.171E-02
RMM:  35    -0.115620315820E+04   -0.22822E-03   -0.48173E-06  1507   0.292E-03    0.103E-02
RMM:  36    -0.115620345111E+04   -0.29291E-03   -0.81796E-06  1642   0.287E-03    0.105E-02
RMM:  37    -0.115620368711E+04   -0.23600E-03   -0.70555E-06  1607   0.291E-03    0.701E-03
RMM:  38    -0.115620382714E+04   -0.14002E-03   -0.51700E-06  1496   0.236E-03    0.757E-03
RMM:  39    -0.115620392172E+04   -0.94583E-04   -0.32529E-06  1366   0.226E-03    0.669E-03
RMM:  40    -0.115620400669E+04   -0.84970E-04   -0.39387E-06  1412   0.203E-03    0.452E-03
RMM:  41    -0.115620404949E+04   -0.42794E-04   -0.23008E-06  1280   0.189E-03    0.429E-03
RMM:  42    -0.115620406556E+04   -0.16076E-04   -0.14124E-06  1162   0.152E-03    0.197E-03
RMM:  43    -0.115620407579E+04   -0.10230E-04   -0.98042E-07  1111   0.128E-03    0.154E-03
RMM:  44    -0.115620408184E+04   -0.60468E-05   -0.73365E-07  1073   0.111E-03    0.718E-04
RMM:  45    -0.115620408386E+04   -0.20231E-05   -0.48754E-07  1006   0.972E-04    0.309E-04
RMM:  46    -0.115620408471E+04   -0.84816E-06   -0.32834E-07   961   0.774E-04
   5 F= -.11640231E+04 E0= -.11640054E+04  d E =-.196141E+00  mag=    21.3107
       N       E                     dE             d eps       ncg     rms          rms(c)
DAV:   1    -0.115619761795E+04    0.64659E-02   -0.10730E+01  2064   0.562E+00    0.150E+00
RMM:   2    -0.115637925618E+04   -0.18164E+00   -0.24826E-01  2203   0.109E+00    0.108E+01
RMM:   3    -0.115619224086E+04    0.18702E+00   -0.10782E-01  2349   0.676E-01    0.279E+00
RMM:   4    -0.115624741464E+04   -0.55174E-01   -0.54225E-02  2241   0.441E-01    0.694E+00
RMM:   5    -0.115621812998E+04    0.29285E-01   -0.35504E-02  2152   0.370E-01    0.411E+00
RMM:   6    -0.115620971760E+04    0.84124E-02   -0.18336E-02  2156   0.300E-01    0.159E+00
RMM:   7    -0.115621899209E+04   -0.92745E-02   -0.76752E-03  2177   0.201E-01    0.146E+00
RMM:   8    -0.115621836374E+04    0.62835E-03   -0.38463E-03  2322   0.112E-01    0.119E+00
RMM:   9    -0.115621839057E+04   -0.26835E-04   -0.44448E-03  2218   0.132E-01    0.107E+00
RMM:  10    -0.115621772543E+04    0.66514E-03   -0.25948E-03  2225   0.112E-01    0.124E+00
RMM:  11    -0.115621768213E+04    0.43300E-04   -0.14100E-03  2210   0.798E-02    0.145E+00
RMM:  12    -0.115621789880E+04   -0.21666E-03   -0.74990E-04  2149   0.562E-02    0.159E+00
RMM:  13    -0.115621722637E+04    0.67243E-03   -0.52410E-04  2175   0.458E-02    0.146E+00
RMM:  14    -0.115621690348E+04    0.32289E-03   -0.65746E-04  2199   0.488E-02    0.955E-01
RMM:  15    -0.115621812532E+04   -0.12218E-02   -0.10839E-03  2227   0.633E-02    0.326E-01
RMM:  16    -0.115621969140E+04   -0.15661E-02   -0.86782E-04  2162   0.665E-02    0.714E-01
RMM:  17    -0.115621913369E+04    0.55771E-03   -0.41152E-04  2076   0.463E-02    0.646E-01
RMM:  18    -0.115621873777E+04    0.39592E-03   -0.15954E-04  2053   0.259E-02    0.382E-01
RMM:  19    -0.115621893459E+04   -0.19682E-03   -0.86366E-05  1990   0.203E-02    0.127E-01
RMM:  20    -0.115621921960E+04   -0.28501E-03   -0.66749E-05  1875   0.195E-02    0.683E-02
RMM:  21    -0.115621934271E+04   -0.12311E-03   -0.38462E-05  1821   0.146E-02    0.103E-01
RMM:  22    -0.115621934750E+04   -0.47922E-05   -0.15317E-05  1586   0.932E-03    0.662E-02
RMM:  23    -0.115621938644E+04   -0.38937E-04   -0.59767E-06  1418   0.549E-03    0.343E-02
RMM:  24    -0.115621944853E+04   -0.62084E-04   -0.41231E-06  1382   0.430E-03    0.277E-02
RMM:  25    -0.115621951821E+04   -0.69686E-04   -0.38982E-06  1422   0.368E-03    0.198E-02
RMM:  26    -0.115621954871E+04   -0.30495E-04   -0.23133E-06  1308   0.324E-03    0.261E-02
RMM:  27    -0.115621956906E+04   -0.20352E-04   -0.13701E-06  1247   0.248E-03    0.200E-02
RMM:  28    -0.115621959374E+04   -0.24684E-04   -0.86005E-07  1169   0.175E-03    0.983E-03
RMM:  29    -0.115621962645E+04   -0.32704E-04   -0.97578E-07  1166   0.155E-03    0.523E-03
RMM:  30    -0.115621966599E+04   -0.39547E-04   -0.13640E-06  1209   0.154E-03    0.367E-03
RMM:  31    -0.115621969179E+04   -0.25794E-04   -0.10296E-06  1133   0.147E-03    0.364E-03
RMM:  32    -0.115621971607E+04   -0.24283E-04   -0.11575E-06  1143   0.133E-03    0.384E-03
RMM:  33    -0.115621974048E+04   -0.24412E-04   -0.14037E-06  1188   0.141E-03    0.244E-03
RMM:  34    -0.115621975481E+04   -0.14331E-04   -0.12080E-06  1141   0.133E-03    0.180E-03
RMM:  35    -0.115621976130E+04   -0.64869E-05   -0.81027E-07  1057   0.120E-03    0.102E-03
RMM:  36    -0.115621976696E+04   -0.56624E-05   -0.69184E-07  1034   0.102E-03    0.866E-04
RMM:  37    -0.115621977109E+04   -0.41233E-05   -0.56859E-07  1059   0.994E-04    0.627E-04
RMM:  38    -0.115621977250E+04   -0.14172E-05   -0.38890E-07   946   0.837E-04    0.518E-04
RMM:  39    -0.115621977353E+04   -0.10287E-05   -0.28484E-07   926   0.716E-04    0.651E-04
RMM:  40    -0.115621977418E+04   -0.65288E-06   -0.20345E-07   882   0.625E-04
   6 F= -.11640406E+04 E0= -.11640228E+04  d E =-.213653E+00  mag=    21.3378
       N       E                     dE             d eps       ncg     rms          rms(c)
DAV:   1    -0.115613985270E+04    0.79921E-01   -0.68479E+01  1998   0.147E+01    0.378E+00
RMM:   2    -0.115719659463E+04   -0.10567E+01   -0.18987E+00  2283   0.289E+00    0.220E+01
RMM:   3    -0.115625654375E+04    0.94005E+00   -0.55961E-01  2362   0.155E+00    0.618E+00
RMM:   4    -0.115646061016E+04   -0.20407E+00   -0.31600E-01  2269   0.105E+00    0.111E+01
RMM:   5    -0.115630302668E+04    0.15758E+00   -0.12483E-01  2224   0.710E-01    0.579E+00
RMM:   6    -0.115630426374E+04   -0.12371E-02   -0.72564E-02  2227   0.577E-01    0.370E+00
RMM:   7    -0.115629183424E+04    0.12429E-01   -0.34923E-02  2179   0.431E-01    0.178E+00
RMM:   8    -0.115631688464E+04   -0.25050E-01   -0.45132E-02  2230   0.425E-01    0.375E+00
RMM:   9    -0.115629746992E+04    0.19415E-01   -0.37457E-02  2332   0.347E-01    0.325E+00
RMM:  10    -0.115628375195E+04    0.13718E-01   -0.23122E-02  2189   0.305E-01    0.275E+00
RMM:  11    -0.115628635762E+04   -0.26057E-02   -0.10938E-02  2254   0.203E-01    0.261E+00
RMM:  12    -0.115629083762E+04   -0.44800E-02   -0.60991E-03  2191   0.156E-01    0.260E+00
RMM:  13    -0.115629351550E+04   -0.26779E-02   -0.49294E-03  2240   0.128E-01    0.227E+00
RMM:  14    -0.115629494387E+04   -0.14284E-02   -0.53179E-03  2232   0.135E-01    0.136E+00
RMM:  15    -0.115629898099E+04   -0.40371E-02   -0.67086E-03  2257   0.154E-01    0.101E+00
RMM:  16    -0.115630218571E+04   -0.32047E-02   -0.45172E-03  2161   0.148E-01    0.161E+00
RMM:  17    -0.115629974723E+04    0.24385E-02   -0.18777E-03  2170   0.912E-02    0.144E+00
RMM:  18    -0.115629787570E+04    0.18715E-02   -0.12647E-03  2211   0.678E-02    0.919E-01
RMM:  19    -0.115629721710E+04    0.65860E-03   -0.84073E-04  2225   0.538E-02    0.299E-01
RMM:  20    -0.115629890477E+04   -0.16877E-02   -0.51838E-04  2109   0.519E-02    0.604E-01
RMM:  21    -0.115629952805E+04   -0.62329E-03   -0.35056E-04  2083   0.416E-02    0.616E-01
RMM:  22    -0.115629978517E+04   -0.25712E-03   -0.22466E-04  2209   0.286E-02    0.406E-01
RMM:  23    -0.115630011623E+04   -0.33106E-03   -0.11724E-04  2086   0.221E-02    0.195E-01
RMM:  24    -0.115630063288E+04   -0.51664E-03   -0.68552E-05  1979   0.162E-02    0.576E-02
RMM:  25    -0.115630094784E+04   -0.31496E-03   -0.49648E-05  1853   0.154E-02    0.651E-02
RMM:  26    -0.115630116046E+04   -0.21263E-03   -0.21230E-05  1805   0.850E-03    0.459E-02
RMM:  27    -0.115630129319E+04   -0.13272E-03   -0.11866E-05  1562   0.635E-03    0.495E-02
RMM:  28    -0.115630147925E+04   -0.18606E-03   -0.94330E-06  1630   0.516E-03    0.399E-02
RMM:  29    -0.115630163919E+04   -0.15994E-03   -0.63815E-06  1586   0.357E-03    0.387E-02
RMM:  30    -0.115630178704E+04   -0.14785E-03   -0.60278E-06  1563   0.365E-03    0.394E-02
RMM:  31    -0.115630192076E+04   -0.13372E-03   -0.55037E-06  1556   0.310E-03    0.255E-02
RMM:  32    -0.115630204713E+04   -0.12637E-03   -0.47804E-06  1492   0.281E-03    0.112E-02
RMM:  33    -0.115630214227E+04   -0.95144E-04   -0.38650E-06  1425   0.256E-03    0.722E-03
RMM:  34    -0.115630221818E+04   -0.75910E-04   -0.33831E-06  1379   0.232E-03    0.857E-03
RMM:  35    -0.115630228109E+04   -0.62910E-04   -0.31751E-06  1351   0.213E-03    0.567E-03
RMM:  36    -0.115630231827E+04   -0.37182E-04   -0.23485E-06  1270   0.186E-03    0.440E-03
RMM:  37    -0.115630233794E+04   -0.19665E-04   -0.14946E-06  1165   0.157E-03    0.331E-03
RMM:  38    -0.115630235333E+04   -0.15389E-04   -0.11400E-06  1120   0.134E-03    0.156E-03
RMM:  39    -0.115630236443E+04   -0.11108E-04   -0.93611E-07  1088   0.122E-03    0.117E-03
RMM:  40    -0.115630237189E+04   -0.74543E-05   -0.77967E-07  1067   0.111E-03    0.583E-04
RMM:  41    -0.115630237671E+04   -0.48274E-05   -0.68265E-07  1046   0.102E-03    0.421E-04
RMM:  42    -0.115630237891E+04   -0.21970E-05   -0.50126E-07   991   0.914E-04    0.684E-04
RMM:  43    -0.115630237980E+04   -0.89210E-06   -0.34216E-07   932   0.775E-04
   7 F= -.11641392E+04 E0= -.11641206E+04  d E =-.985387E-01  mag=    21.4212
       N       E                     dE             d eps       ncg     rms          rms(c)
DAV:   1    -0.115631222527E+04   -0.98464E-02   -0.50896E+00  2064   0.401E+00    0.103E+00
RMM:   2    -0.115639674694E+04   -0.84522E-01   -0.12117E-01  2260   0.758E-01    0.623E+00
RMM:   3    -0.115630704263E+04    0.89704E-01   -0.49156E-02  2383   0.454E-01    0.188E+00
RMM:   4    -0.115634345914E+04   -0.36417E-01   -0.21062E-02  2273   0.300E-01    0.539E+00
RMM:   5    -0.115631189422E+04    0.31565E-01   -0.16654E-02  2113   0.276E-01    0.160E+00
RMM:   6    -0.115631994262E+04   -0.80484E-02   -0.84935E-03  2132   0.203E-01    0.117E+00
RMM:   7    -0.115632365325E+04   -0.37106E-02   -0.36660E-03  2243   0.134E-01    0.117E+00
RMM:   8    -0.115632446368E+04   -0.81043E-03   -0.33137E-03  2198   0.112E-01    0.140E+00
RMM:   9    -0.115632399660E+04    0.46708E-03   -0.27447E-03  2214   0.103E-01    0.169E+00
RMM:  10    -0.115632152184E+04    0.24748E-02   -0.10479E-03  2150   0.717E-02    0.161E+00
RMM:  11    -0.115632015461E+04    0.13672E-02   -0.45594E-04  2155   0.448E-02    0.124E+00
RMM:  12    -0.115632027744E+04   -0.12284E-03   -0.61387E-04  2183   0.478E-02    0.335E-01
RMM:  13    -0.115632239596E+04   -0.21185E-02   -0.75478E-04  2105   0.604E-02    0.521E-01
RMM:  14    -0.115632261509E+04   -0.21914E-03   -0.41840E-04  2097   0.482E-02    0.580E-01
RMM:  15    -0.115632214193E+04    0.47316E-03   -0.15813E-04  2111   0.256E-02    0.388E-01
RMM:  16    -0.115632214445E+04   -0.25152E-05   -0.54923E-05  1879   0.156E-02    0.285E-01
RMM:  17    -0.115632221728E+04   -0.72825E-04   -0.24268E-05  1725   0.108E-02    0.171E-01
RMM:  18    -0.115632232493E+04   -0.10766E-03   -0.25214E-05  1765   0.111E-02    0.866E-02
RMM:  19    -0.115632240143E+04   -0.76494E-04   -0.15508E-05  1631   0.935E-03    0.401E-02
RMM:  20    -0.115632244910E+04   -0.47678E-04   -0.10188E-05  1536   0.761E-03    0.497E-02
RMM:  21    -0.115632246583E+04   -0.16725E-04   -0.47787E-06  1396   0.559E-03    0.419E-02
RMM:  22    -0.115632250569E+04   -0.39860E-04   -0.24736E-06  1343   0.365E-03    0.226E-02
RMM:  23    -0.115632254289E+04   -0.37200E-04   -0.24389E-06  1345   0.351E-03    0.171E-02
RMM:  24    -0.115632257188E+04   -0.28992E-04   -0.14558E-06  1267   0.275E-03    0.190E-02
RMM:  25    -0.115632259056E+04   -0.18681E-04   -0.95339E-07  1200   0.210E-03    0.138E-02
RMM:  26    -0.115632260603E+04   -0.15464E-04   -0.78579E-07  1153   0.181E-03    0.105E-02
RMM:  27    -0.115632263190E+04   -0.25871E-04   -0.77080E-07  1159   0.152E-03    0.491E-03
RMM:  28    -0.115632265943E+04   -0.27532E-04   -0.78210E-07  1145   0.144E-03    0.431E-03
RMM:  29    -0.115632268557E+04   -0.26137E-04   -0.78434E-07  1133   0.128E-03    0.517E-03
RMM:  30    -0.115632271621E+04   -0.30641E-04   -0.11211E-06  1165   0.131E-03    0.434E-03
RMM:  31    -0.115632273315E+04   -0.16946E-04   -0.81690E-07  1110   0.125E-03    0.715E-03
RMM:  32    -0.115632274985E+04   -0.16701E-04   -0.88266E-07  1102   0.115E-03    0.654E-03
RMM:  33    -0.115632276400E+04   -0.14145E-04   -0.86597E-07  1123   0.120E-03    0.323E-03
RMM:  34    -0.115632277318E+04   -0.91814E-05   -0.80317E-07  1086   0.109E-03    0.184E-03
RMM:  35    -0.115632277819E+04   -0.50121E-05   -0.59857E-07  1064   0.105E-03    0.142E-03
RMM:  36    -0.115632278084E+04   -0.26466E-05   -0.47413E-07   988   0.874E-04    0.460E-04
RMM:  37    -0.115632278263E+04   -0.17945E-05   -0.37470E-07   968   0.810E-04    0.514E-04
RMM:  38    -0.115632278336E+04   -0.72936E-06   -0.26998E-07   909   0.685E-04
   8 F= -.11641553E+04 E0= -.11641370E+04  d E =-.114723E+00  mag=    21.3961
       N       E                     dE             d eps       ncg     rms          rms(c)
DAV:   1    -0.115632836076E+04   -0.55781E-02   -0.20393E+01  1998   0.854E+00    0.185E+00
RMM:   2    -0.115650039626E+04   -0.17204E+00   -0.47620E-01  2292   0.151E+00    0.954E+00
RMM:   3    -0.115635041798E+04    0.14998E+00   -0.12677E-01  2384   0.755E-01    0.251E+00
RMM:   4    -0.115644306049E+04   -0.92643E-01   -0.78505E-02  2276   0.557E-01    0.768E+00
RMM:   5    -0.115637214680E+04    0.70914E-01   -0.41067E-02  2238   0.424E-01    0.401E+00
RMM:   6    -0.115637067712E+04    0.14697E-02   -0.23186E-02  2197   0.318E-01    0.272E+00
RMM:   7    -0.115637636267E+04   -0.56856E-02   -0.15540E-02  2155   0.275E-01    0.220E+00
RMM:   8    -0.115637417446E+04    0.21882E-02   -0.88587E-03  2251   0.195E-01    0.199E+00
RMM:   9    -0.115637684169E+04   -0.26672E-02   -0.11708E-02  2279   0.187E-01    0.219E+00
RMM:  10    -0.115636630992E+04    0.10532E-01   -0.10612E-02  2218   0.196E-01    0.126E+00
RMM:  11    -0.115636806251E+04   -0.17526E-02   -0.51320E-03  2213   0.150E-01    0.207E+00
RMM:  12    -0.115636948908E+04   -0.14266E-02   -0.20811E-03  2138   0.955E-02    0.241E+00
RMM:  13    -0.115636838839E+04    0.11007E-02   -0.90929E-04  2178   0.578E-02    0.236E+00
RMM:  14    -0.115636902209E+04   -0.63371E-03   -0.10758E-03  2206   0.534E-02    0.187E+00
RMM:  15    -0.115637115504E+04   -0.21329E-02   -0.20221E-03  2222   0.813E-02    0.103E+00
RMM:  16    -0.115637417264E+04   -0.30176E-02   -0.20769E-03  2205   0.932E-02    0.393E-01
RMM:  17    -0.115637559601E+04   -0.14234E-02   -0.91663E-04  2168   0.677E-02    0.478E-01
RMM:  18    -0.115637550027E+04    0.95748E-04   -0.45725E-04  2172   0.468E-02    0.421E-01
RMM:  19    -0.115637531729E+04    0.18298E-03   -0.22647E-04  2126   0.318E-02    0.243E-01
RMM:  20    -0.115637562572E+04   -0.30843E-03   -0.12461E-04  2067   0.234E-02    0.140E-01
RMM:  21    -0.115637586404E+04   -0.23832E-03   -0.97866E-05  1988   0.213E-02    0.165E-01
RMM:  22    -0.115637600230E+04   -0.13826E-03   -0.57884E-05  1893   0.162E-02    0.125E-01
RMM:  23    -0.115637602366E+04   -0.21360E-04   -0.23353E-05  1684   0.100E-02    0.590E-02
RMM:  24    -0.115637607430E+04   -0.50644E-04   -0.12700E-05  1531   0.740E-03    0.474E-02
RMM:  25    -0.115637612973E+04   -0.55425E-04   -0.88936E-06  1502   0.669E-03    0.581E-02
RMM:  26    -0.115637617939E+04   -0.49665E-04   -0.71624E-06  1486   0.573E-03    0.476E-02
RMM:  27    -0.115637626403E+04   -0.84641E-04   -0.56579E-06  1503   0.448E-03    0.225E-02
RMM:  28    -0.115637633442E+04   -0.70384E-04   -0.34770E-06  1416   0.323E-03    0.355E-02
RMM:  29    -0.115637637141E+04   -0.36991E-04   -0.23886E-06  1305   0.276E-03    0.113E-02
RMM:  30    -0.115637642836E+04   -0.56949E-04   -0.21880E-06  1299   0.252E-03    0.688E-03
RMM:  31    -0.115637648430E+04   -0.55946E-04   -0.24189E-06  1308   0.208E-03    0.673E-03
RMM:  32    -0.115637651966E+04   -0.35352E-04   -0.15571E-06  1190   0.179E-03    0.417E-03
RMM:  33    -0.115637655064E+04   -0.30983E-04   -0.15415E-06  1184   0.158E-03    0.508E-03
RMM:  34    -0.115637657695E+04   -0.26314E-04   -0.14331E-06  1164   0.156E-03    0.198E-03
RMM:  35    -0.115637659373E+04   -0.16777E-04   -0.11579E-06  1126   0.141E-03    0.209E-03
RMM:  36    -0.115637660696E+04   -0.13230E-04   -0.10014E-06  1098   0.127E-03    0.995E-04
RMM:  37    -0.115637661700E+04   -0.10038E-04   -0.87562E-07  1088   0.118E-03    0.326E-03
RMM:  38    -0.115637662176E+04   -0.47606E-05   -0.61724E-07  1026   0.105E-03    0.203E-03
RMM:  39    -0.115637662487E+04   -0.31099E-05   -0.46530E-07   969   0.886E-04    0.573E-04
RMM:  40    -0.115637662716E+04   -0.22884E-05   -0.35092E-07   955   0.793E-04    0.327E-04
RMM:  41    -0.115637662901E+04   -0.18563E-05   -0.28875E-07   954   0.697E-04    0.312E-04
RMM:  42    -0.115637663009E+04   -0.10733E-05   -0.22285E-07   911   0.639E-04    0.354E-04
RMM:  43    -0.115637663057E+04   -0.48179E-06   -0.15791E-07   836   0.545E-04
   9 F= -.11642183E+04 E0= -.11641997E+04  d E =-.629262E-01  mag=    21.4413
       N       E                     dE             d eps       ncg     rms          rms(c)
DAV:   1    -0.115637701737E+04   -0.38728E-03   -0.51926E-02  2160   0.431E-01    0.924E-02
RMM:   2    -0.115637749727E+04   -0.47990E-03   -0.11451E-03  2286   0.751E-02    0.636E-01
RMM:   3    -0.115637667786E+04    0.81940E-03   -0.38752E-04  2344   0.430E-02    0.126E-01
RMM:   4    -0.115637732467E+04   -0.64681E-03   -0.20124E-04  2131   0.316E-02    0.446E-01
RMM:   5    -0.115637690974E+04    0.41493E-03   -0.13132E-04  1979   0.241E-02    0.163E-01
RMM:   6    -0.115637705761E+04   -0.14787E-03   -0.66642E-05  1844   0.180E-02    0.175E-01
RMM:   7    -0.115637707431E+04   -0.16700E-04   -0.35800E-05  1836   0.131E-02    0.950E-02
RMM:   8    -0.115637711780E+04   -0.43486E-04   -0.32113E-05  1818   0.131E-02    0.117E-01
RMM:   9    -0.115637711563E+04    0.21689E-05   -0.28668E-05  1762   0.116E-02    0.148E-01
RMM:  10    -0.115637708195E+04    0.33683E-04   -0.18266E-05  1517   0.864E-03    0.136E-01
RMM:  11    -0.115637707071E+04    0.11238E-04   -0.10510E-05  1473   0.727E-03    0.971E-02
RMM:  12    -0.115637708582E+04   -0.15112E-04   -0.53773E-06  1384   0.533E-03    0.416E-02
RMM:  13    -0.115637711392E+04   -0.28094E-04   -0.35022E-06  1342   0.459E-03    0.159E-02
RMM:  14    -0.115637712839E+04   -0.14476E-04   -0.21455E-06  1310   0.360E-03    0.283E-02
RMM:  15    -0.115637712517E+04    0.32240E-05   -0.88428E-07  1180   0.273E-03    0.243E-02
RMM:  16    -0.115637712451E+04    0.65435E-06   -0.29354E-07  1147   0.154E-03
  10 F= -.11642184E+04 E0= -.11641999E+04  d E =-.630968E-01  mag=    21.4402
       N       E                     dE             d eps       ncg     rms          rms(c)
DAV:   1    -0.115639750898E+04   -0.20384E-01   -0.14449E+01  1992   0.748E+00    0.136E+00
RMM:   2    -0.115645709892E+04   -0.59590E-01   -0.29239E-01  2310   0.121E+00    0.508E+00
RMM:   3    -0.115642774975E+04    0.29349E-01   -0.68899E-02  2431   0.556E-01    0.192E+00
RMM:   4    -0.115644467743E+04   -0.16928E-01   -0.28899E-02  2318   0.385E-01    0.260E+00
RMM:   5    -0.115643717804E+04    0.74994E-02   -0.11604E-02  2353   0.217E-01    0.296E+00
RMM:   6    -0.115643247764E+04    0.47004E-02   -0.10455E-02  2214   0.211E-01    0.168E+00
RMM:   7    -0.115643428706E+04   -0.18094E-02   -0.56216E-03  2301   0.147E-01    0.131E+00
RMM:   8    -0.115643231990E+04    0.19672E-02   -0.35431E-03  2203   0.132E-01    0.641E-01
RMM:   9    -0.115643473332E+04   -0.24134E-02   -0.32400E-03  2270   0.109E-01    0.114E+00
RMM:  10    -0.115643310347E+04    0.16299E-02   -0.28000E-03  2210   0.107E-01    0.780E-01
RMM:  11    -0.115643279374E+04    0.30973E-03   -0.18210E-03  2211   0.936E-02    0.661E-01
RMM:  12    -0.115643291024E+04   -0.11649E-03   -0.10188E-03  2234   0.666E-02    0.556E-01
RMM:  13    -0.115643251685E+04    0.39338E-03   -0.50347E-04  2205   0.487E-02    0.321E-01
RMM:  14    -0.115643264975E+04   -0.13289E-03   -0.31074E-04  2174   0.366E-02    0.175E-01
RMM:  15    -0.115643276000E+04   -0.11025E-03   -0.18296E-04  2059   0.292E-02    0.119E-01
RMM:  16    -0.115643281212E+04   -0.52126E-04   -0.82064E-05  1972   0.201E-02    0.118E-01
RMM:  17    -0.115643281294E+04   -0.81551E-06   -0.36624E-05  1796   0.133E-02    0.785E-02
RMM:  18    -0.115643284275E+04   -0.29810E-04   -0.14870E-05  1563   0.861E-03    0.599E-02
RMM:  19    -0.115643286855E+04   -0.25803E-04   -0.97068E-06  1493   0.741E-03    0.545E-02
RMM:  20    -0.115643289428E+04   -0.25730E-04   -0.52380E-06  1430   0.516E-03    0.266E-02
RMM:  21    -0.115643292915E+04   -0.34867E-04   -0.45242E-06  1414   0.463E-03    0.278E-02
RMM:  22    -0.115643297178E+04   -0.42627E-04   -0.34410E-06  1385   0.389E-03    0.444E-02
RMM:  23    -0.115643299798E+04   -0.26201E-04   -0.24821E-06  1336   0.341E-03    0.301E-02
RMM:  24    -0.115643301814E+04   -0.20164E-04   -0.15138E-06  1261   0.263E-03    0.157E-02
RMM:  25    -0.115643304305E+04   -0.24912E-04   -0.11832E-06  1236   0.219E-03    0.928E-03
RMM:  26    -0.115643306995E+04   -0.26894E-04   -0.98403E-07  1210   0.194E-03    0.929E-03
RMM:  27    -0.115643310203E+04   -0.32083E-04   -0.10281E-06  1186   0.163E-03    0.360E-03
RMM:  28    -0.115643313832E+04   -0.36287E-04   -0.12184E-06  1180   0.152E-03    0.462E-03
RMM:  29    -0.115643316825E+04   -0.29937E-04   -0.11837E-06  1144   0.143E-03    0.299E-03
RMM:  30    -0.115643319195E+04   -0.23699E-04   -0.10864E-06  1130   0.136E-03    0.231E-03
RMM:  31    -0.115643321250E+04   -0.20542E-04   -0.10733E-06  1121   0.130E-03    0.165E-03
RMM:  32    -0.115643322991E+04   -0.17414E-04   -0.10628E-06  1111   0.124E-03    0.169E-03
RMM:  33    -0.115643324186E+04   -0.11954E-04   -0.88930E-07  1075   0.118E-03    0.177E-03
RMM:  34    -0.115643325124E+04   -0.93762E-05   -0.83383E-07  1082   0.109E-03    0.130E-03
RMM:  35    -0.115643325674E+04   -0.54962E-05   -0.66967E-07  1049   0.103E-03    0.869E-04
RMM:  36    -0.115643325961E+04   -0.28707E-05   -0.48348E-07   983   0.890E-04    0.584E-04
RMM:  37    -0.115643326143E+04   -0.18226E-05   -0.35772E-07   950   0.780E-04    0.507E-04
RMM:  38    -0.115643326267E+04   -0.12401E-05   -0.26611E-07   899   0.680E-04    0.416E-04
RMM:  39    -0.115643326325E+04   -0.58499E-06   -0.18813E-07   865   0.602E-04
  11 F= -.11642775E+04 E0= -.11642590E+04  d E =-.590542E-01  mag=    21.4628
       N       E                     dE             d eps       ncg     rms          rms(c)
DAV:   1    -0.115643046772E+04    0.27949E-02   -0.36614E+00  2016   0.377E+00    0.680E-01
RMM:   2    -0.115644530995E+04   -0.14842E-01   -0.72715E-02  2317   0.606E-01    0.249E+00
RMM:   3    -0.115643883056E+04    0.64794E-02   -0.17320E-02  2426   0.282E-01    0.155E+00
RMM:   4    -0.115644759548E+04   -0.87649E-02   -0.10401E-02  2286   0.221E-01    0.254E+00
RMM:   5    -0.115643647224E+04    0.11123E-01   -0.56266E-03  2310   0.145E-01    0.783E-01
RMM:   6    -0.115643930600E+04   -0.28338E-02   -0.29869E-03  2166   0.121E-01    0.732E-01
RMM:   7    -0.115643937608E+04   -0.70084E-04   -0.12985E-03  2318   0.729E-02    0.683E-01
RMM:   8    -0.115643891760E+04    0.45849E-03   -0.97615E-04  2247   0.681E-02    0.328E-01
RMM:   9    -0.115643968239E+04   -0.76479E-03   -0.88767E-04  2239   0.599E-02    0.658E-01
RMM:  10    -0.115643926554E+04    0.41684E-03   -0.70225E-04  2166   0.530E-02    0.529E-01
RMM:  11    -0.115643902231E+04    0.24323E-03   -0.44552E-04  2160   0.483E-02    0.440E-01
RMM:  12    -0.115643897708E+04    0.45230E-04   -0.21642E-04  2153   0.314E-02    0.237E-01
RMM:  13    -0.115643910124E+04   -0.12416E-03   -0.11111E-04  2007   0.237E-02    0.154E-01
RMM:  14    -0.115643919908E+04   -0.97842E-04   -0.77785E-05  1914   0.201E-02    0.193E-01
RMM:  15    -0.115643913884E+04    0.60238E-04   -0.32975E-05  1761   0.134E-02    0.120E-01
RMM:  16    -0.115643915957E+04   -0.20730E-04   -0.14600E-05  1547   0.831E-03    0.468E-02
RMM:  17    -0.115643920487E+04   -0.45302E-04   -0.10006E-05  1511   0.758E-03    0.495E-02
RMM:  18    -0.115643921917E+04   -0.14292E-04   -0.62043E-06  1430   0.614E-03    0.377E-02
RMM:  19    -0.115643922649E+04   -0.73226E-05   -0.24816E-06  1339   0.383E-03    0.191E-02
RMM:  20    -0.115643923834E+04   -0.11852E-04   -0.14535E-06  1292   0.296E-03    0.191E-02
RMM:  21    -0.115643925054E+04   -0.12198E-04   -0.82908E-07  1208   0.205E-03    0.153E-02
RMM:  22    -0.115643926487E+04   -0.14326E-04   -0.72423E-07  1186   0.186E-03    0.888E-03
RMM:  23    -0.115643927967E+04   -0.14800E-04   -0.65408E-07  1176   0.165E-03    0.107E-02
RMM:  24    -0.115643928628E+04   -0.66126E-05   -0.48431E-07  1114   0.146E-03    0.776E-03
RMM:  25    -0.115643929510E+04   -0.88228E-05   -0.34240E-07  1068   0.103E-03    0.425E-03
RMM:  26    -0.115643930385E+04   -0.87530E-05   -0.32280E-07  1041   0.104E-03    0.452E-03
RMM:  27    -0.115643931519E+04   -0.11340E-04   -0.35187E-07  1070   0.907E-04    0.310E-03
RMM:  28    -0.115643932825E+04   -0.13053E-04   -0.42050E-07  1066   0.888E-04    0.241E-03
RMM:  29    -0.115643933701E+04   -0.87624E-05   -0.37650E-07  1023   0.878E-04    0.154E-03
RMM:  30    -0.115643934478E+04   -0.77671E-05   -0.39228E-07  1016   0.785E-04    0.174E-03
RMM:  31    -0.115643935044E+04   -0.56617E-05   -0.33218E-07  1004   0.782E-04    0.725E-04
RMM:  32    -0.115643935550E+04   -0.50627E-05   -0.34244E-07   971   0.713E-04    0.149E-03
RMM:  33    -0.115643935918E+04   -0.36811E-05   -0.29719E-07   962   0.719E-04    0.117E-03
RMM:  34    -0.115643936173E+04   -0.25467E-05   -0.26824E-07   964   0.644E-04    0.336E-04
RMM:  35    -0.115643936337E+04   -0.16457E-05   -0.21792E-07   896   0.619E-04    0.282E-04
RMM:  36    -0.115643936423E+04   -0.85366E-06   -0.16336E-07   854   0.538E-04
  12 F= -.11642848E+04 E0= -.11642664E+04  d E =-.663524E-01  mag=    21.4748
       N       E                     dE             d eps       ncg     rms          rms(c)
DAV:   1    -0.115645007068E+04   -0.10707E-01   -0.13516E+01  1992   0.750E+00    0.128E+00
RMM:   2    -0.115651909815E+04   -0.69027E-01   -0.29194E-01  2311   0.124E+00    0.672E+00
RMM:   3    -0.115646502811E+04    0.54070E-01   -0.70015E-02  2506   0.534E-01    0.212E+00
RMM:   4    -0.115652948040E+04   -0.64452E-01   -0.48390E-02  2283   0.472E-01    0.543E+00
RMM:   5    -0.115647940282E+04    0.50078E-01   -0.25475E-02  2339   0.303E-01    0.216E+00
RMM:   6    -0.115648467560E+04   -0.52728E-02   -0.13815E-02  2175   0.257E-01    0.112E+00
RMM:   7    -0.115648495335E+04   -0.27775E-03   -0.52078E-03  2254   0.150E-01    0.125E+00
RMM:   8    -0.115648477292E+04    0.18043E-03   -0.38167E-03  2312   0.122E-01    0.122E+00
RMM:   9    -0.115648391593E+04    0.85699E-03   -0.28211E-03  2267   0.111E-01    0.825E-01
RMM:  10    -0.115648371902E+04    0.19691E-03   -0.25990E-03  2210   0.110E-01    0.452E-01
RMM:  11    -0.115648404672E+04   -0.32770E-03   -0.11821E-03  2279   0.759E-02    0.668E-01
RMM:  12    -0.115648373448E+04    0.31224E-03   -0.63027E-04  2213   0.554E-02    0.635E-01
RMM:  13    -0.115648338798E+04    0.34650E-03   -0.28647E-04  2201   0.360E-02    0.417E-01
RMM:  14    -0.115648352757E+04   -0.13960E-03   -0.19108E-04  2058   0.307E-02    0.210E-01
RMM:  15    -0.115648377280E+04   -0.24522E-03   -0.12918E-04  2045   0.246E-02    0.139E-01
RMM:  16    -0.115648393154E+04   -0.15875E-03   -0.86862E-05  1950   0.208E-02    0.184E-01
RMM:  17    -0.115648388815E+04    0.43389E-04   -0.41009E-05  1791   0.143E-02    0.126E-01
RMM:  18    -0.115648390862E+04   -0.20469E-04   -0.19331E-05  1610   0.959E-03    0.388E-02
RMM:  19    -0.115648397900E+04   -0.70377E-04   -0.13578E-05  1592   0.837E-03    0.547E-02
RMM:  20    -0.115648399542E+04   -0.16417E-04   -0.77028E-06  1454   0.669E-03    0.383E-02
RMM:  21    -0.115648401701E+04   -0.21597E-04   -0.30958E-06  1365   0.410E-03    0.126E-02
RMM:  22    -0.115648404731E+04   -0.30298E-04   -0.21774E-06  1340   0.341E-03    0.219E-02
RMM:  23    -0.115648406108E+04   -0.13767E-04   -0.16164E-06  1267   0.284E-03    0.188E-02
RMM:  24    -0.115648408297E+04   -0.21886E-04   -0.14542E-06  1266   0.243E-03    0.109E-02
RMM:  25    -0.115648409844E+04   -0.15479E-04   -0.10782E-06  1225   0.227E-03    0.671E-03
RMM:  26    -0.115648411626E+04   -0.17813E-04   -0.70157E-07  1176   0.146E-03    0.460E-03
RMM:  27    -0.115648413028E+04   -0.14022E-04   -0.55085E-07  1142   0.128E-03    0.322E-03
RMM:  28    -0.115648414583E+04   -0.15555E-04   -0.66850E-07  1138   0.118E-03    0.233E-03
RMM:  29    -0.115648415857E+04   -0.12738E-04   -0.59822E-07  1098   0.113E-03    0.165E-03
RMM:  30    -0.115648416826E+04   -0.96899E-05   -0.54556E-07  1076   0.101E-03    0.148E-03
RMM:  31    -0.115648417701E+04   -0.87490E-05   -0.54737E-07  1065   0.966E-04    0.112E-03
RMM:  32    -0.115648418343E+04   -0.64148E-05   -0.47011E-07  1059   0.882E-04    0.992E-04
RMM:  33    -0.115648418812E+04   -0.46987E-05   -0.41641E-07  1013   0.832E-04    0.115E-03
RMM:  34    -0.115648419165E+04   -0.35301E-05   -0.37898E-07  1000   0.772E-04    0.760E-04
RMM:  35    -0.115648419340E+04   -0.17492E-05   -0.29003E-07   952   0.718E-04    0.407E-04
RMM:  36    -0.115648419451E+04   -0.11051E-05   -0.21862E-07   899   0.609E-04    0.390E-04
RMM:  37    -0.115648419526E+04   -0.75498E-06   -0.16638E-07   862   0.562E-04
  13 F= -.11643319E+04 E0= -.11643135E+04  d E =-.470740E-01  mag=    21.4668
       N       E                     dE             d eps       ncg     rms          rms(c)
DAV:   1    -0.115647880501E+04    0.53895E-02   -0.46569E+00  2004   0.440E+00    0.755E-01
RMM:   2    -0.115650249724E+04   -0.23692E-01   -0.99455E-02  2293   0.729E-01    0.404E+00
RMM:   3    -0.115648200767E+04    0.20490E-01   -0.24617E-02  2514   0.318E-01    0.138E+00
RMM:   4    -0.115650571610E+04   -0.23708E-01   -0.17554E-02  2276   0.285E-01    0.324E+00
RMM:   5    -0.115648887861E+04    0.16837E-01   -0.88567E-03  2334   0.180E-01    0.148E+00
RMM:   6    -0.115649030291E+04   -0.14243E-02   -0.52082E-03  2157   0.156E-01    0.730E-01
RMM:   7    -0.115649025496E+04    0.47956E-04   -0.19631E-03  2221   0.955E-02    0.659E-01
RMM:   8    -0.115649030293E+04   -0.47975E-04   -0.12740E-03  2300   0.745E-02    0.498E-01
RMM:   9    -0.115649005498E+04    0.24795E-03   -0.95511E-04  2281   0.677E-02    0.244E-01
RMM:  10    -0.115649084202E+04   -0.78704E-03   -0.75372E-04  2267   0.552E-02    0.582E-01
RMM:  11    -0.115649030845E+04    0.53357E-03   -0.52151E-04  2179   0.475E-02    0.420E-01
RMM:  12    -0.115649022261E+04    0.85840E-04   -0.26398E-04  2131   0.362E-02    0.368E-01
RMM:  13    -0.115649012666E+04    0.95956E-04   -0.10801E-04  2032   0.216E-02    0.251E-01
RMM:  14    -0.115649016020E+04   -0.33541E-04   -0.62271E-05  1872   0.176E-02    0.137E-01
RMM:  15    -0.115649024775E+04   -0.87551E-04   -0.42787E-05  1807   0.146E-02    0.496E-02
RMM:  16    -0.115649032540E+04   -0.77653E-04   -0.27449E-05  1710   0.118E-02    0.791E-02
RMM:  17    -0.115649032813E+04   -0.27295E-05   -0.14281E-05  1550   0.896E-03    0.668E-02
RMM:  18    -0.115649033169E+04   -0.35546E-05   -0.50180E-06  1405   0.540E-03    0.191E-02
RMM:  19    -0.115649035494E+04   -0.23257E-04   -0.41404E-06  1398   0.468E-03    0.310E-02
RMM:  20    -0.115649036294E+04   -0.79944E-05   -0.23990E-06  1341   0.388E-03    0.214E-02
RMM:  21    -0.115649037012E+04   -0.71806E-05   -0.10554E-06  1229   0.238E-03    0.729E-03
RMM:  22    -0.115649038221E+04   -0.12096E-04   -0.76978E-07  1204   0.203E-03    0.152E-02
RMM:  23    -0.115649039164E+04   -0.94311E-05   -0.64533E-07  1191   0.180E-03    0.104E-02
RMM:  24    -0.115649040208E+04   -0.10432E-04   -0.51724E-07  1168   0.145E-03    0.752E-03
RMM:  25    -0.115649040699E+04   -0.49135E-05   -0.35359E-07  1081   0.122E-03    0.422E-03
RMM:  26    -0.115649041380E+04   -0.68109E-05   -0.24820E-07  1064   0.832E-04    0.226E-03
RMM:  27    -0.115649042042E+04   -0.66162E-05   -0.21756E-07  1022   0.754E-04    0.154E-03
RMM:  28    -0.115649042815E+04   -0.77341E-05   -0.27169E-07  1044   0.715E-04    0.166E-03
RMM:  29    -0.115649043342E+04   -0.52709E-05   -0.24142E-07  1000   0.731E-04    0.933E-04
RMM:  30    -0.115649043795E+04   -0.45316E-05   -0.25358E-07   986   0.642E-04    0.779E-04
RMM:  31    -0.115649044217E+04   -0.42185E-05   -0.24383E-07  1009   0.670E-04    0.721E-04
RMM:  32    -0.115649044473E+04   -0.25532E-05   -0.22291E-07   958   0.601E-04    0.560E-04
RMM:  33    -0.115649044680E+04   -0.20744E-05   -0.19561E-07   913   0.581E-04    0.474E-04
RMM:  34    -0.115649044813E+04   -0.13253E-05   -0.17371E-07   909   0.544E-04    0.269E-04
RMM:  35    -0.115649044873E+04   -0.60460E-06   -0.12692E-07   828   0.502E-04
  14 F= -.11643393E+04 E0= -.11643210E+04  d E =-.544718E-01  mag=    21.4621
       N       E                     dE             d eps       ncg     rms          rms(c)
DAV:   1    -0.115649014667E+04    0.30145E-03   -0.99904E+00  1992   0.676E+00    0.111E+00
RMM:   2    -0.115655766921E+04   -0.67523E-01   -0.24879E-01  2349   0.110E+00    0.706E+00
RMM:   3    -0.115649214784E+04    0.65521E-01   -0.56134E-02  2450   0.500E-01    0.166E+00
RMM:   4    -0.115654188613E+04   -0.49738E-01   -0.36980E-02  2282   0.418E-01    0.436E+00
RMM:   5    -0.115651343813E+04    0.28448E-01   -0.17753E-02  2342   0.259E-01    0.223E+00
RMM:   6    -0.115651426922E+04   -0.83110E-03   -0.10597E-02  2198   0.222E-01    0.105E+00
RMM:   7    -0.115651512810E+04   -0.85887E-03   -0.59883E-03  2192   0.156E-01    0.110E+00
RMM:   8    -0.115651406313E+04    0.10650E-02   -0.35322E-03  2253   0.129E-01    0.714E-01
RMM:   9    -0.115651494367E+04   -0.88054E-03   -0.33772E-03  2218   0.124E-01    0.102E+00
RMM:  10    -0.115651413102E+04    0.81265E-03   -0.26050E-03  2279   0.103E-01    0.838E-01
RMM:  11    -0.115651346860E+04    0.66242E-03   -0.15262E-03  2162   0.885E-02    0.728E-01
RMM:  12    -0.115651324327E+04    0.22534E-03   -0.68016E-04  2184   0.561E-02    0.538E-01
RMM:  13    -0.115651316462E+04    0.78651E-04   -0.23879E-04  2115   0.342E-02    0.276E-01
RMM:  14    -0.115651344104E+04   -0.27642E-03   -0.16606E-04  2072   0.288E-02    0.174E-01
RMM:  15    -0.115651359217E+04   -0.15113E-03   -0.10211E-04  1987   0.227E-02    0.102E-01
RMM:  16    -0.115651365511E+04   -0.62939E-04   -0.56282E-05  1880   0.167E-02    0.788E-02
RMM:  17    -0.115651368495E+04   -0.29840E-04   -0.21458E-05  1696   0.107E-02    0.783E-02
RMM:  18    -0.115651369444E+04   -0.94889E-05   -0.11513E-05  1507   0.756E-03    0.523E-02
RMM:  19    -0.115651371963E+04   -0.25199E-04   -0.73249E-06  1448   0.611E-03    0.330E-02
RMM:  20    -0.115651375647E+04   -0.36832E-04   -0.55907E-06  1438   0.519E-03    0.286E-02
RMM:  21    -0.115651377616E+04   -0.19690E-04   -0.26472E-06  1348   0.382E-03    0.170E-02
RMM:  22    -0.115651379368E+04   -0.17520E-04   -0.17476E-06  1278   0.293E-03    0.261E-02
RMM:  23    -0.115651381112E+04   -0.17447E-04   -0.11742E-06  1241   0.245E-03    0.241E-02
RMM:  24    -0.115651383303E+04   -0.21909E-04   -0.11941E-06  1236   0.214E-03    0.108E-02
RMM:  25    -0.115651385641E+04   -0.23383E-04   -0.11656E-06  1217   0.216E-03    0.674E-03
RMM:  26    -0.115651387412E+04   -0.17706E-04   -0.75464E-07  1172   0.156E-03    0.462E-03
RMM:  27    -0.115651388892E+04   -0.14799E-04   -0.60611E-07  1114   0.130E-03    0.503E-03
RMM:  28    -0.115651390495E+04   -0.16027E-04   -0.61793E-07  1091   0.111E-03    0.283E-03
RMM:  29    -0.115651392149E+04   -0.16545E-04   -0.67188E-07  1106   0.113E-03    0.162E-03
RMM:  30    -0.115651393491E+04   -0.13418E-04   -0.67724E-07  1105   0.108E-03    0.136E-03
RMM:  31    -0.115651394447E+04   -0.95650E-05   -0.60387E-07  1070   0.105E-03    0.124E-03
RMM:  32    -0.115651395293E+04   -0.84577E-05   -0.60385E-07  1045   0.972E-04    0.941E-04
RMM:  33    -0.115651395950E+04   -0.65712E-05   -0.57237E-07  1069   0.977E-04    0.726E-04
RMM:  34    -0.115651396389E+04   -0.43907E-05   -0.52348E-07  1035   0.904E-04    0.487E-04
RMM:  35    -0.115651396605E+04   -0.21597E-05   -0.39677E-07   996   0.845E-04    0.426E-04
RMM:  36    -0.115651396718E+04   -0.11219E-05   -0.29259E-07   921   0.705E-04    0.497E-04
RMM:  37    -0.115651396801E+04   -0.83814E-06   -0.22255E-07   912   0.646E-04
  15 F= -.11643665E+04 E0= -.11643486E+04  d E =-.272323E-01  mag=    21.4590
       N       E                     dE             d eps       ncg     rms          rms(c)
DAV:   1    -0.115651354379E+04    0.42338E-03   -0.13358E-01  2160   0.783E-01    0.129E-01
RMM:   2    -0.115651438042E+04   -0.83663E-03   -0.33052E-03  2345   0.127E-01    0.802E-01
RMM:   3    -0.115651325235E+04    0.11281E-02   -0.74866E-04  2447   0.591E-02    0.197E-01
RMM:   4    -0.115651418977E+04   -0.93743E-03   -0.50402E-04  2255   0.485E-02    0.473E-01
RMM:   5    -0.115651375602E+04    0.43375E-03   -0.22289E-04  2175   0.290E-02    0.228E-01
RMM:   6    -0.115651382389E+04   -0.67868E-04   -0.13708E-04  1960   0.253E-02    0.155E-01
RMM:   7    -0.115651383671E+04   -0.12824E-04   -0.79287E-05  1915   0.181E-02    0.134E-01
RMM:   8    -0.115651383632E+04    0.39247E-06   -0.51965E-05  1982   0.157E-02    0.789E-02
RMM:   9    -0.115651385780E+04   -0.21475E-04   -0.44826E-05  1853   0.152E-02    0.117E-01
RMM:  10    -0.115651384085E+04    0.16946E-04   -0.36563E-05  1773   0.126E-02    0.131E-01
RMM:  11    -0.115651381888E+04    0.21968E-04   -0.18685E-05  1564   0.103E-02    0.828E-02
RMM:  12    -0.115651382783E+04   -0.89497E-05   -0.88472E-06  1446   0.693E-03    0.438E-02
RMM:  13    -0.115651384137E+04   -0.13542E-04   -0.32489E-06  1368   0.449E-03    0.172E-02
RMM:  14    -0.115651385298E+04   -0.11603E-04   -0.21736E-06  1317   0.372E-03    0.236E-02
RMM:  15    -0.115651385267E+04    0.30849E-06   -0.10470E-06  1211   0.273E-03
  16 F= -.11643668E+04 E0= -.11643489E+04  d E =-.275163E-01  mag=    21.4589
       N       E                     dE             d eps       ncg     rms          rms(c)
DAV:   1    -0.115652320866E+04   -0.93557E-02   -0.40274E+00  1992   0.435E+00    0.698E-01
RMM:   2    -0.115655189018E+04   -0.28682E-01   -0.10166E-01  2380   0.699E-01    0.491E+00
RMM:   3    -0.115651996419E+04    0.31926E-01   -0.23307E-02  2440   0.329E-01    0.962E-01
RMM:   4    -0.115654309659E+04   -0.23132E-01   -0.15223E-02  2283   0.268E-01    0.269E+00
RMM:   5    -0.115653267942E+04    0.10417E-01   -0.70623E-03  2325   0.168E-01    0.158E+00
RMM:   6    -0.115653208937E+04    0.59004E-03   -0.42877E-03  2213   0.141E-01    0.682E-01
RMM:   7    -0.115653294394E+04   -0.85457E-03   -0.25096E-03  2191   0.104E-01    0.716E-01
RMM:   8    -0.115653263929E+04    0.30464E-03   -0.13314E-03  2254   0.792E-02    0.463E-01
RMM:   9    -0.115653305112E+04   -0.41182E-03   -0.12740E-03  2219   0.752E-02    0.578E-01
RMM:  10    -0.115653278976E+04    0.26136E-03   -0.10543E-03  2223   0.640E-02    0.535E-01
RMM:  11    -0.115653236919E+04    0.42057E-03   -0.54067E-04  2174   0.532E-02    0.406E-01
RMM:  12    -0.115653235908E+04    0.10111E-04   -0.26555E-04  2145   0.338E-02    0.279E-01
RMM:  13    -0.115653237040E+04   -0.11325E-04   -0.98621E-05  1946   0.225E-02    0.146E-01
RMM:  14    -0.115653246199E+04   -0.91587E-04   -0.60589E-05  1888   0.177E-02    0.974E-02
RMM:  15    -0.115653250504E+04   -0.43050E-04   -0.33097E-05  1765   0.128E-02    0.628E-02
RMM:  16    -0.115653252910E+04   -0.24059E-04   -0.19041E-05  1586   0.958E-03    0.431E-02
RMM:  17    -0.115653255120E+04   -0.22105E-04   -0.75428E-06  1462   0.667E-03    0.405E-02
RMM:  18    -0.115653256242E+04   -0.11215E-04   -0.53114E-06  1409   0.543E-03    0.397E-02
RMM:  19    -0.115653257417E+04   -0.11747E-04   -0.29202E-06  1356   0.425E-03    0.141E-02
RMM:  20    -0.115653259699E+04   -0.22826E-04   -0.20059E-06  1301   0.306E-03    0.147E-02
RMM:  21    -0.115653260780E+04   -0.10808E-04   -0.12787E-06  1266   0.276E-03    0.102E-02
RMM:  22    -0.115653261697E+04   -0.91667E-05   -0.74154E-07  1195   0.180E-03    0.102E-02
RMM:  23    -0.115653262877E+04   -0.11804E-04   -0.56101E-07  1158   0.167E-03    0.147E-02
RMM:  24    -0.115653264328E+04   -0.14507E-04   -0.53594E-07  1157   0.142E-03    0.969E-03
RMM:  25    -0.115653265704E+04   -0.13761E-04   -0.51894E-07  1108   0.137E-03    0.423E-03
RMM:  26    -0.115653266924E+04   -0.12202E-04   -0.43289E-07  1085   0.109E-03    0.248E-03
RMM:  27    -0.115653267894E+04   -0.97005E-05   -0.35042E-07  1053   0.915E-04    0.319E-03
RMM:  28    -0.115653268879E+04   -0.98454E-05   -0.34480E-07  1028   0.823E-04    0.225E-03
RMM:  29    -0.115653270035E+04   -0.11562E-04   -0.42795E-07  1070   0.838E-04    0.116E-03
RMM:  30    -0.115653270899E+04   -0.86379E-05   -0.42944E-07  1055   0.857E-04    0.978E-04
RMM:  31    -0.115653271541E+04   -0.64284E-05   -0.40037E-07  1026   0.815E-04    0.853E-04
RMM:  32    -0.115653272079E+04   -0.53710E-05   -0.39472E-07  1032   0.794E-04    0.603E-04
RMM:  33    -0.115653272461E+04   -0.38264E-05   -0.35999E-07  1010   0.758E-04    0.424E-04
RMM:  34    -0.115653272723E+04   -0.26188E-05   -0.31717E-07   985   0.721E-04    0.484E-04
RMM:  35    -0.115653272831E+04   -0.10838E-05   -0.23784E-07   939   0.654E-04    0.329E-04
RMM:  36    -0.115653272889E+04   -0.57767E-06   -0.16915E-07   853   0.554E-04
  17 F= -.11643880E+04 E0= -.11643704E+04  d E =-.212393E-01  mag=    21.4585
       N       E                     dE             d eps       ncg     rms          rms(c)
DAV:   1    -0.115652944441E+04    0.32839E-02   -0.32484E+00  2016   0.391E+00    0.624E-01
RMM:   2    -0.115655157753E+04   -0.22133E-01   -0.81804E-02  2380   0.627E-01    0.423E+00
RMM:   3    -0.115652737653E+04    0.24201E-01   -0.18328E-02  2445   0.292E-01    0.902E-01
RMM:   4    -0.115654593366E+04   -0.18557E-01   -0.12069E-02  2289   0.236E-01    0.250E+00
RMM:   5    -0.115653660895E+04    0.93247E-02   -0.57798E-03  2312   0.152E-01    0.132E+00
RMM:   6    -0.115653675376E+04   -0.14481E-03   -0.34679E-03  2212   0.127E-01    0.609E-01
RMM:   7    -0.115653732797E+04   -0.57420E-03   -0.19655E-03  2197   0.909E-02    0.625E-01
RMM:   8    -0.115653693865E+04    0.38932E-03   -0.10585E-03  2253   0.715E-02    0.337E-01
RMM:   9    -0.115653718487E+04   -0.24622E-03   -0.96287E-04  2235   0.681E-02    0.390E-01
RMM:  10    -0.115653721671E+04   -0.31840E-04   -0.65805E-04  2247   0.529E-02    0.552E-01
RMM:  11    -0.115653678908E+04    0.42764E-03   -0.37150E-04  2145   0.409E-02    0.404E-01
RMM:  12    -0.115653677833E+04    0.10744E-04   -0.21929E-04  2092   0.315E-02    0.255E-01
RMM:  13    -0.115653681656E+04   -0.38226E-04   -0.75003E-05  1889   0.197E-02    0.119E-01
RMM:  14    -0.115653691531E+04   -0.98756E-04   -0.47119E-05  1844   0.160E-02    0.724E-02
RMM:  15    -0.115653695788E+04   -0.42571E-04   -0.22503E-05  1684   0.111E-02    0.341E-02
RMM:  16    -0.115653698282E+04   -0.24939E-04   -0.12997E-05  1533   0.803E-03    0.443E-02
RMM:  17    -0.115653699177E+04   -0.89497E-05   -0.58632E-06  1417   0.608E-03    0.317E-02
RMM:  18    -0.115653699993E+04   -0.81588E-05   -0.34006E-06  1361   0.418E-03    0.296E-02
RMM:  19    -0.115653701104E+04   -0.11105E-04   -0.22313E-06  1325   0.364E-03    0.123E-02
RMM:  20    -0.115653702706E+04   -0.16027E-04   -0.15869E-06  1276   0.272E-03    0.114E-02
RMM:  21    -0.115653703543E+04   -0.83646E-05   -0.95068E-07  1227   0.240E-03    0.863E-03
RMM:  22    -0.115653704236E+04   -0.69357E-05   -0.57407E-07  1165   0.158E-03    0.109E-02
RMM:  23    -0.115653705106E+04   -0.87001E-05   -0.42256E-07  1126   0.144E-03    0.115E-02
RMM:  24    -0.115653706270E+04   -0.11636E-04   -0.41958E-07  1128   0.121E-03    0.602E-03
RMM:  25    -0.115653707386E+04   -0.11160E-04   -0.41379E-07  1080   0.123E-03    0.316E-03
RMM:  26    -0.115653708278E+04   -0.89213E-05   -0.32750E-07  1056   0.937E-04    0.250E-03
RMM:  27    -0.115653708977E+04   -0.69924E-05   -0.26718E-07  1021   0.800E-04    0.303E-03
RMM:  28    -0.115653709718E+04   -0.74072E-05   -0.27335E-07  1006   0.711E-04    0.152E-03
RMM:  29    -0.115653710604E+04   -0.88541E-05   -0.32465E-07  1040   0.752E-04    0.125E-03
RMM:  30    -0.115653711237E+04   -0.63327E-05   -0.33166E-07  1043   0.764E-04    0.801E-04
RMM:  31    -0.115653711714E+04   -0.47681E-05   -0.31147E-07  1000   0.720E-04    0.856E-04
RMM:  32    -0.115653712109E+04   -0.39550E-05   -0.30157E-07  1001   0.701E-04    0.485E-04
RMM:  33    -0.115653712398E+04   -0.28839E-05   -0.28149E-07   994   0.675E-04    0.633E-04
RMM:  34    -0.115653712580E+04   -0.18271E-05   -0.24363E-07   958   0.643E-04    0.460E-04
RMM:  35    -0.115653712654E+04   -0.73578E-06   -0.17693E-07   893   0.574E-04
  18 F= -.11643941E+04 E0= -.11643767E+04  d E =-.273060E-01  mag=    21.4586
       N       E                     dE             d eps       ncg     rms          rms(c)
DAV:   1    -0.115654556985E+04   -0.84440E-02   -0.27697E+00  2010   0.363E+00    0.565E-01
RMM:   2    -0.115656285339E+04   -0.17284E-01   -0.69653E-02  2407   0.578E-01    0.363E+00
RMM:   3    -0.115654453828E+04    0.18315E-01   -0.14647E-02  2455   0.264E-01    0.758E-01
RMM:   4    -0.115656091374E+04   -0.16375E-01   -0.10153E-02  2321   0.213E-01    0.245E+00
RMM:   5    -0.115655117160E+04    0.97421E-02   -0.48916E-03  2290   0.141E-01    0.126E+00
RMM:   6    -0.115655142269E+04   -0.25109E-03   -0.27653E-03  2234   0.114E-01    0.503E-01
RMM:   7    -0.115655226716E+04   -0.84448E-03   -0.12459E-03  2208   0.768E-02    0.541E-01
RMM:   8    -0.115655227686E+04   -0.97002E-05   -0.74002E-04  2292   0.570E-02    0.441E-01
RMM:   9    -0.115655229907E+04   -0.22204E-04   -0.65560E-04  2205   0.520E-02    0.411E-01
RMM:  10    -0.115655222160E+04    0.77465E-04   -0.51595E-04  2234   0.454E-02    0.336E-01
RMM:  11    -0.115655210113E+04    0.12048E-03   -0.29168E-04  2219   0.375E-02    0.280E-01
RMM:  12    -0.115655210538E+04   -0.42511E-05   -0.12605E-04  2175   0.244E-02    0.210E-01
RMM:  13    -0.115655208433E+04    0.21053E-04   -0.63613E-05  1866   0.174E-02    0.152E-01
RMM:  14    -0.115655209902E+04   -0.14696E-04   -0.37539E-05  1756   0.129E-02    0.943E-02
RMM:  15    -0.115655212354E+04   -0.24518E-04   -0.20573E-05  1597   0.101E-02    0.497E-02
RMM:  16    -0.115655215186E+04   -0.28323E-04   -0.12710E-05  1528   0.795E-03    0.428E-02
RMM:  17    -0.115655216629E+04   -0.14428E-04   -0.59980E-06  1425   0.622E-03    0.324E-02
RMM:  18    -0.115655217638E+04   -0.10093E-04   -0.28765E-06  1355   0.410E-03    0.164E-02
RMM:  19    -0.115655218521E+04   -0.88288E-05   -0.23989E-06  1306   0.371E-03    0.186E-02
RMM:  20    -0.115655219378E+04   -0.85701E-05   -0.10603E-06  1239   0.256E-03    0.102E-02
RMM:  21    -0.115655219999E+04   -0.62128E-05   -0.65826E-07  1190   0.191E-03    0.765E-03
RMM:  22    -0.115655220591E+04   -0.59132E-05   -0.47165E-07  1160   0.161E-03    0.107E-02
RMM:  23    -0.115655221118E+04   -0.52706E-05   -0.36105E-07  1135   0.136E-03    0.911E-03
RMM:  24    -0.115655221947E+04   -0.82915E-05   -0.31306E-07  1102   0.111E-03    0.468E-03
RMM:  25    -0.115655222796E+04   -0.84891E-05   -0.29142E-07  1077   0.102E-03    0.350E-03
RMM:  26    -0.115655223235E+04   -0.43911E-05   -0.22031E-07  1008   0.881E-04    0.194E-03
RMM:  27    -0.115655223720E+04   -0.48486E-05   -0.17879E-07   956   0.663E-04    0.226E-03
RMM:  28    -0.115655224206E+04   -0.48644E-05   -0.16990E-07   972   0.617E-04    0.131E-03
RMM:  29    -0.115655224702E+04   -0.49624E-05   -0.18396E-07   956   0.580E-04    0.750E-04
RMM:  30    -0.115655225120E+04   -0.41766E-05   -0.18739E-07   983   0.585E-04    0.536E-04
RMM:  31    -0.115655225453E+04   -0.33256E-05   -0.19405E-07   945   0.563E-04    0.727E-04
RMM:  32    -0.115655225699E+04   -0.24590E-05   -0.17907E-07   922   0.560E-04    0.432E-04
RMM:  33    -0.115655225857E+04   -0.15849E-05   -0.15670E-07   907   0.525E-04    0.313E-04
RMM:  34    -0.115655225974E+04   -0.11688E-05   -0.13768E-07   869   0.500E-04    0.332E-04
RMM:  35    -0.115655226029E+04   -0.54583E-06   -0.10307E-07   809   0.460E-04
  19 F= -.11644111E+04 E0= -.11643937E+04  d E =-.169768E-01  mag=    21.4543
       N       E                     dE             d eps       ncg     rms          rms(c)
DAV:   1    -0.115654517561E+04    0.70841E-02   -0.55008E+00  1992   0.511E+00    0.797E-01
RMM:   2    -0.115658036432E+04   -0.35189E-01   -0.13877E-01  2408   0.816E-01    0.537E+00
RMM:   3    -0.115654312177E+04    0.37243E-01   -0.29577E-02  2454   0.375E-01    0.106E+00
RMM:   4    -0.115657402244E+04   -0.30901E-01   -0.20496E-02  2318   0.303E-01    0.327E+00
RMM:   5    -0.115655671633E+04    0.17306E-01   -0.91304E-03  2283   0.203E-01    0.166E+00
RMM:   6    -0.115655740323E+04   -0.68691E-03   -0.49213E-03  2244   0.152E-01    0.818E-01
RMM:   7    -0.115655878531E+04   -0.13821E-02   -0.26404E-03  2199   0.111E-01    0.832E-01
RMM:   8    -0.115655902073E+04   -0.23542E-03   -0.16982E-03  2294   0.833E-02    0.746E-01
RMM:   9    -0.115655852646E+04    0.49427E-03   -0.13883E-03  2236   0.761E-02    0.590E-01
RMM:  10    -0.115655830873E+04    0.21772E-03   -0.10334E-03  2259   0.658E-02    0.402E-01
RMM:  11    -0.115655827008E+04    0.38657E-04   -0.59940E-04  2262   0.534E-02    0.367E-01
RMM:  12    -0.115655827066E+04   -0.58056E-06   -0.28782E-04  2233   0.370E-02    0.317E-01
RMM:  13    -0.115655818334E+04    0.87311E-04   -0.14399E-04  2103   0.257E-02    0.240E-01
RMM:  14    -0.115655820364E+04   -0.20299E-04   -0.76153E-05  1916   0.180E-02    0.153E-01
RMM:  15    -0.115655824144E+04   -0.37795E-04   -0.45581E-05  1821   0.147E-02    0.897E-02
RMM:  16    -0.115655828451E+04   -0.43076E-04   -0.31136E-05  1750   0.119E-02    0.709E-02
RMM:  17    -0.115655830816E+04   -0.23643E-04   -0.14284E-05  1523   0.890E-03    0.302E-02
RMM:  18    -0.115655833822E+04   -0.30063E-04   -0.63113E-06  1436   0.573E-03    0.276E-02
RMM:  19    -0.115655835007E+04   -0.11846E-04   -0.45728E-06  1353   0.497E-03    0.194E-02
RMM:  20    -0.115655836813E+04   -0.18064E-04   -0.18263E-06  1310   0.327E-03    0.116E-02
RMM:  21    -0.115655838000E+04   -0.11869E-04   -0.13594E-06  1271   0.269E-03    0.116E-02
RMM:  22    -0.115655839037E+04   -0.10370E-04   -0.86095E-07  1213   0.217E-03    0.744E-03
RMM:  23    -0.115655840232E+04   -0.11950E-04   -0.73301E-07  1209   0.183E-03    0.895E-03
RMM:  24    -0.115655842035E+04   -0.18032E-04   -0.70596E-07  1201   0.162E-03    0.722E-03
RMM:  25    -0.115655843218E+04   -0.11827E-04   -0.50257E-07  1135   0.127E-03    0.464E-03
RMM:  26    -0.115655843983E+04   -0.76468E-05   -0.37316E-07  1060   0.108E-03    0.267E-03
RMM:  27    -0.115655844696E+04   -0.71329E-05   -0.29339E-07  1010   0.872E-04    0.226E-03
RMM:  28    -0.115655845608E+04   -0.91209E-05   -0.30674E-07  1032   0.792E-04    0.187E-03
RMM:  29    -0.115655846560E+04   -0.95240E-05   -0.34824E-07  1033   0.795E-04    0.115E-03
RMM:  30    -0.115655847273E+04   -0.71295E-05   -0.34630E-07  1032   0.755E-04    0.730E-04
RMM:  31    -0.115655847811E+04   -0.53729E-05   -0.33525E-07  1013   0.723E-04    0.119E-03
RMM:  32    -0.115655848191E+04   -0.38009E-05   -0.29793E-07   969   0.683E-04    0.638E-04
RMM:  33    -0.115655848523E+04   -0.33239E-05   -0.27376E-07   967   0.662E-04    0.761E-04
RMM:  34    -0.115655848727E+04   -0.20337E-05   -0.23944E-07   959   0.631E-04    0.274E-04
RMM:  35    -0.115655848816E+04   -0.89043E-06   -0.17159E-07   876   0.558E-04
  20 F= -.11644197E+04 E0= -.11644024E+04  d E =-.256629E-01  mag=    21.4484
       N       E                     dE             d eps       ncg     rms          rms(c)
DAV:   1    -0.115656280120E+04   -0.43139E-02   -0.42234E+00  1992   0.442E+00    0.652E-01
RMM:   2    -0.115658309585E+04   -0.20295E-01   -0.98411E-02  2390   0.686E-01    0.333E+00
RMM:   3    -0.115656761066E+04    0.15485E-01   -0.18921E-02  2452   0.301E-01    0.107E+00
RMM:   4    -0.115658703700E+04   -0.19426E-01   -0.12225E-02  2335   0.236E-01    0.339E+00
RMM:   5    -0.115656861329E+04    0.18424E-01   -0.79543E-03  2278   0.178E-01    0.107E+00
RMM:   6    -0.115657227015E+04   -0.36569E-02   -0.36973E-03  2216   0.135E-01    0.595E-01
RMM:   7    -0.115657300552E+04   -0.73537E-03   -0.14969E-03  2232   0.838E-02    0.539E-01
RMM:   8    -0.115657293180E+04    0.73719E-04   -0.81585E-04  2302   0.625E-02    0.485E-01
RMM:   9    -0.115657306110E+04   -0.12930E-03   -0.76153E-04  2283   0.547E-02    0.527E-01
RMM:  10    -0.115657295470E+04    0.10639E-03   -0.62537E-04  2264   0.471E-02    0.409E-01
RMM:  11    -0.115657289036E+04    0.64341E-04   -0.41654E-04  2167   0.443E-02    0.362E-01
RMM:  12    -0.115657282728E+04    0.63081E-04   -0.20910E-04  2204   0.303E-02    0.335E-01
RMM:  13    -0.115657270723E+04    0.12006E-03   -0.97622E-05  1973   0.212E-02    0.240E-01
RMM:  14    -0.115657275123E+04   -0.44007E-04   -0.63892E-05  1869   0.166E-02    0.140E-01
[...]
RMM:  11    -0.115738640224E+04   -0.19090E-02   -0.95167E-04  2256   0.597E-02    0.113E+00
RMM:  12    -0.115738756353E+04   -0.11613E-02   -0.12641E-03  2194   0.733E-02    0.196E+00
RMM:  13    -0.115738495248E+04    0.26111E-02   -0.67292E-04  2121   0.523E-02    0.174E+00
RMM:  14    -0.115738371920E+04    0.12333E-02   -0.25962E-04  2206   0.287E-02    0.118E+00
RMM:  15    -0.115738406809E+04   -0.34889E-03   -0.31816E-04  2128   0.400E-02    0.425E-01
RMM:  16    -0.115738538656E+04   -0.13185E-02   -0.36452E-04  2078   0.440E-02    0.413E-01
RMM:  17    -0.115738563938E+04   -0.25282E-03   -0.26388E-04  2048   0.353E-02    0.423E-01
RMM:  18    -0.115738552321E+04    0.11617E-03   -0.85083E-05  1917   0.184E-02    0.433E-01
RMM:  19    -0.115738538432E+04    0.13889E-03   -0.30766E-05  1762   0.117E-02    0.236E-01
RMM:  20    -0.115738549147E+04   -0.10715E-03   -0.22215E-05  1628   0.107E-02    0.133E-01
RMM:  21    -0.115738556987E+04   -0.78405E-04   -0.14126E-05  1576   0.894E-03    0.557E-02
RMM:  22    -0.115738561510E+04   -0.45230E-04   -0.86029E-06  1469   0.713E-03    0.495E-02
RMM:  23    -0.115738562538E+04   -0.10274E-04   -0.29200E-06  1344   0.432E-03    0.200E-02
RMM:  24    -0.115738563430E+04   -0.89184E-05   -0.22103E-06  1298   0.391E-03    0.187E-02
RMM:  25    -0.115738563767E+04   -0.33711E-05   -0.13353E-06  1230   0.303E-03    0.101E-02
RMM:  26    -0.115738563989E+04   -0.22201E-05   -0.60526E-07  1183   0.190E-03    0.769E-03
RMM:  27    -0.115738564152E+04   -0.16304E-05   -0.34554E-07  1133   0.126E-03    0.405E-03
RMM:  28    -0.115738564265E+04   -0.11344E-05   -0.22389E-07  1083   0.104E-03    0.672E-03
RMM:  29    -0.115738564357E+04   -0.91329E-06   -0.16059E-07  1069   0.853E-04
 370 F= -.11657294E+04 E0= -.11657087E+04  d E =-.780982E-02  mag=    21.3394
       N       E                     dE             d eps       ncg     rms          rms(c)
DAV:   1    -0.115731704341E+04    0.68599E-01   -0.28501E+01  2004   0.118E+01    0.150E+00
RMM:   2    -0.115743724663E+04   -0.12020E+00   -0.67470E-01  2082   0.184E+00    0.386E+00
RMM:   3    -0.115742639246E+04    0.10854E-01   -0.12988E-01  2174   0.865E-01    0.635E+00
RMM:   4    -0.115741182906E+04    0.14563E-01   -0.58718E-02  2531   0.484E-01    0.411E+00
RMM:   5    -0.115738434490E+04    0.27484E-01   -0.27290E-02  2194   0.348E-01    0.116E+00
RMM:   6    -0.115740311126E+04   -0.18766E-01   -0.14473E-02  2269   0.255E-01    0.231E+00
RMM:   7    -0.115739591248E+04    0.71988E-02   -0.44500E-03  2365   0.128E-01    0.219E+00
RMM:   8    -0.115739477186E+04    0.11406E-02   -0.33416E-03  2192   0.122E-01    0.215E+00
RMM:   9    -0.115739121934E+04    0.35525E-02   -0.25781E-03  2258   0.104E-01    0.176E+00
RMM:  10    -0.115738895486E+04    0.22645E-02   -0.23097E-03  2217   0.966E-02    0.876E-01
RMM:  11    -0.115739620802E+04   -0.72532E-02   -0.32619E-03  2254   0.115E-01    0.307E+00
RMM:  12    -0.115739766858E+04   -0.14606E-02   -0.44000E-03  2166   0.142E-01    0.403E+00
RMM:  13    -0.115739074824E+04    0.69203E-02   -0.16444E-03  2156   0.826E-02    0.411E+00
RMM:  14    -0.115738505838E+04    0.56899E-02   -0.63034E-04  2300   0.400E-02    0.344E+00
RMM:  15    -0.115738222495E+04    0.28334E-02   -0.90094E-04  2187   0.584E-02    0.173E+00
RMM:  16    -0.115738666455E+04   -0.44396E-02   -0.16285E-03  2135   0.910E-02    0.360E-01
RMM:  17    -0.115739134088E+04   -0.46763E-02   -0.16651E-03  2147   0.896E-02    0.920E-01
RMM:  18    -0.115739164821E+04   -0.30733E-03   -0.88037E-04  2143   0.628E-02    0.116E+00
RMM:  19    -0.115739048904E+04    0.11592E-02   -0.31866E-04  2146   0.331E-02    0.103E+00
RMM:  20    -0.115739026269E+04    0.22635E-03   -0.11100E-04  2061   0.200E-02    0.873E-01
RMM:  21    -0.115739028385E+04   -0.21160E-04   -0.66019E-05  1896   0.167E-02    0.724E-01
RMM:  22    -0.115739039839E+04   -0.11454E-03   -0.53185E-05  1851   0.163E-02    0.586E-01
RMM:  23    -0.115739043421E+04   -0.35819E-04   -0.35778E-05  1885   0.130E-02    0.337E-01
RMM:  24    -0.115739065524E+04   -0.22104E-03   -0.34181E-05  1740   0.133E-02    0.230E-01
RMM:  25    -0.115739076841E+04   -0.11317E-03   -0.16478E-05  1615   0.894E-03    0.162E-01
RMM:  26    -0.115739082003E+04   -0.51615E-04   -0.82936E-06  1496   0.642E-03    0.827E-02
RMM:  27    -0.115739086215E+04   -0.42117E-04   -0.72397E-06  1483   0.589E-03    0.412E-02
RMM:  28    -0.115739088551E+04   -0.23369E-04   -0.48906E-06  1386   0.502E-03    0.315E-02
RMM:  29    -0.115739089719E+04   -0.11677E-04   -0.37618E-06  1326   0.451E-03    0.709E-02
RMM:  30    -0.115739088903E+04    0.81654E-05   -0.23627E-06  1267   0.336E-03    0.781E-02
RMM:  31    -0.115739088376E+04    0.52621E-05   -0.14204E-06  1234   0.255E-03    0.542E-02
RMM:  32    -0.115739088895E+04   -0.51886E-05   -0.72475E-07  1169   0.197E-03    0.354E-02
RMM:  33    -0.115739089569E+04   -0.67400E-05   -0.48844E-07  1091   0.142E-03    0.153E-02
RMM:  34    -0.115739090163E+04   -0.59379E-05   -0.39167E-07  1061   0.134E-03    0.654E-03
RMM:  35    -0.115739090558E+04   -0.39510E-05   -0.25822E-07  1064   0.107E-03    0.499E-03
RMM:  36    -0.115739090847E+04   -0.28840E-05   -0.16801E-07  1020   0.809E-04    0.343E-03
RMM:  37    -0.115739091029E+04   -0.18219E-05   -0.10978E-07   928   0.604E-04    0.320E-03
RMM:  38    -0.115739091129E+04   -0.10020E-05   -0.81988E-08   928   0.542E-04    0.546E-03
RMM:  39    -0.115739091236E+04   -0.10733E-05   -0.64344E-08   847   0.448E-04    0.284E-03
RMM:  40    -0.115739091377E+04   -0.14114E-05   -0.59222E-08   739   0.413E-04    0.213E-03
RMM:  41    -0.115739091488E+04   -0.11061E-05   -0.58836E-08   764   0.391E-04    0.625E-04
RMM:  42    -0.115739091578E+04   -0.89735E-06   -0.58823E-08   766   0.392E-04
 371 F= -.11657369E+04 E0= -.11657162E+04  d E =-.152451E-01  mag=    21.3360
       N       E                     dE             d eps       ncg     rms          rms(c)
DAV:   1    -0.115738186882E+04    0.90461E-02   -0.78431E+00  1992   0.622E+00    0.778E-01
RMM:   2    -0.115741784756E+04   -0.35979E-01   -0.18564E-01  2059   0.962E-01    0.270E+00
RMM:   3    -0.115740949860E+04    0.83490E-02   -0.34147E-02  2126   0.453E-01    0.354E+00
RMM:   4    -0.115740867461E+04    0.82399E-03   -0.20894E-02  2502   0.299E-01    0.235E+00
RMM:   5    -0.115740133089E+04    0.73437E-02   -0.72439E-03  2189   0.183E-01    0.121E+00
RMM:   6    -0.115740254209E+04   -0.12112E-02   -0.44023E-03  2252   0.140E-01    0.107E+00
RMM:   7    -0.115740261861E+04   -0.76517E-04   -0.18497E-03  2247   0.877E-02    0.974E-01
RMM:   8    -0.115740360133E+04   -0.98273E-03   -0.12523E-03  2172   0.759E-02    0.130E+00
RMM:   9    -0.115740222914E+04    0.13722E-02   -0.64889E-04  2207   0.518E-02    0.109E+00
RMM:  10    -0.115740147754E+04    0.75161E-03   -0.52554E-04  2192   0.488E-02    0.658E-01
RMM:  11    -0.115740259435E+04   -0.11168E-02   -0.79079E-04  2254   0.555E-02    0.952E-01
RMM:  12    -0.115740511325E+04   -0.25189E-02   -0.12311E-03  2231   0.723E-02    0.219E+00
RMM:  13    -0.115740277104E+04    0.23422E-02   -0.93366E-04  2126   0.623E-02    0.235E+00
RMM:  14    -0.115740041305E+04    0.23580E-02   -0.27243E-04  2141   0.277E-02    0.210E+00
RMM:  15    -0.115739924334E+04    0.11697E-02   -0.15923E-04  2117   0.240E-02    0.132E+00
RMM:  16    -0.115740014262E+04   -0.89929E-03   -0.32429E-04  2055   0.407E-02    0.424E-01
RMM:  17    -0.115740185035E+04   -0.17077E-02   -0.43637E-04  2083   0.467E-02    0.227E-01
RMM:  18    -0.115740241118E+04   -0.56083E-03   -0.26104E-04  2027   0.346E-02    0.409E-01
RMM:  19    -0.115740226994E+04    0.14124E-03   -0.11016E-04  1923   0.217E-02    0.451E-01
RMM:  20    -0.115740213016E+04    0.13978E-03   -0.37274E-05  1761   0.111E-02    0.394E-01
RMM:  21    -0.115740212394E+04    0.62154E-05   -0.11703E-05  1509   0.725E-03    0.343E-01
RMM:  22    -0.115740215327E+04   -0.29328E-04   -0.79902E-06  1490   0.633E-03    0.276E-01
RMM:  23    -0.115740219079E+04   -0.37521E-04   -0.63562E-06  1477   0.565E-03    0.184E-01
RMM:  24    -0.115740224019E+04   -0.49401E-04   -0.64043E-06  1463   0.570E-03    0.887E-02
RMM:  25    -0.115740229084E+04   -0.50644E-04   -0.57337E-06  1407   0.568E-03    0.476E-02
RMM:  26    -0.115740231466E+04   -0.23819E-04   -0.29869E-06  1298   0.417E-03    0.208E-02
RMM:  27    -0.115740232560E+04   -0.10941E-04   -0.18891E-06  1248   0.338E-03    0.180E-02
RMM:  28    -0.115740232940E+04   -0.38060E-05   -0.10893E-06  1202   0.260E-03    0.346E-02
RMM:  29    -0.115740232746E+04    0.19456E-05   -0.71732E-07  1176   0.215E-03    0.396E-02
RMM:  30    -0.115740232642E+04    0.10395E-05   -0.37590E-07  1128   0.147E-03    0.293E-02
RMM:  31    -0.115740232880E+04   -0.23795E-05   -0.23278E-07  1068   0.108E-03    0.161E-02
RMM:  32    -0.115740233171E+04   -0.29126E-05   -0.17223E-07   988   0.827E-04    0.687E-03
RMM:  33    -0.115740233361E+04   -0.19003E-05   -0.11548E-07   946   0.691E-04    0.248E-03
RMM:  34    -0.115740233464E+04   -0.10286E-05   -0.81938E-08   952   0.572E-04    0.229E-03
RMM:  35    -0.115740233521E+04   -0.57570E-06   -0.55253E-08   870   0.461E-04
 372 F= -.11657501E+04 E0= -.11657294E+04  d E =-.132395E-01  mag=    21.3355
       N       E                     dE             d eps       ncg     rms          rms(c)
DAV:   1    -0.115730696201E+04    0.95373E-01   -0.39203E+01  1992   0.139E+01    0.175E+00
RMM:   2    -0.115746581526E+04   -0.15885E+00   -0.94169E-01  2066   0.216E+00    0.443E+00
RMM:   3    -0.115746062445E+04    0.51908E-02   -0.18043E-01  2135   0.104E+00    0.688E+00
RMM:   4    -0.115745131091E+04    0.93135E-02   -0.86160E-02  2567   0.569E-01    0.435E+00
RMM:   5    -0.115741838184E+04    0.32929E-01   -0.47331E-02  2165   0.440E-01    0.343E+00
RMM:   6    -0.115741587259E+04    0.25092E-02   -0.19367E-02  2300   0.294E-01    0.285E+00
RMM:   7    -0.115741625757E+04   -0.38498E-03   -0.12876E-02  2184   0.244E-01    0.240E+00
RMM:   8    -0.115741575287E+04    0.50470E-03   -0.62153E-03  2207   0.171E-01    0.220E+00
RMM:   9    -0.115741047576E+04    0.52771E-02   -0.32448E-03  2290   0.121E-01    0.186E+00
RMM:  10    -0.115740991965E+04    0.55611E-03   -0.39456E-03  2217   0.123E-01    0.129E+00
RMM:  11    -0.115741194836E+04   -0.20287E-02   -0.33425E-03  2287   0.114E-01    0.229E+00
RMM:  12    -0.115741032369E+04    0.16247E-02   -0.35309E-03  2233   0.124E-01    0.194E+00
RMM:  13    -0.115740838657E+04    0.19371E-02   -0.14303E-03  2318   0.714E-02    0.149E+00
RMM:  14    -0.115740901744E+04   -0.63087E-03   -0.15164E-03  2160   0.772E-02    0.118E+00
RMM:  15    -0.115740945862E+04   -0.44118E-03   -0.84705E-04  2159   0.633E-02    0.103E+00
RMM:  16    -0.115740974882E+04   -0.29020E-03   -0.62308E-04  2196   0.515E-02    0.102E+00
RMM:  17    -0.115741011201E+04   -0.36319E-03   -0.41099E-04  2208   0.424E-02    0.128E+00
RMM:  18    -0.115741018553E+04   -0.73526E-04   -0.41344E-04  2081   0.456E-02    0.148E+00
RMM:  19    -0.115740921510E+04    0.97043E-03   -0.28021E-04  2059   0.361E-02    0.115E+00
RMM:  20    -0.115740913883E+04    0.76276E-04   -0.17713E-04  1979   0.307E-02    0.805E-01
RMM:  21    -0.115740941282E+04   -0.27399E-03   -0.15298E-04  1998   0.272E-02    0.437E-01
RMM:  22    -0.115740980678E+04   -0.39396E-03   -0.13105E-04  1973   0.248E-02    0.116E-01
RMM:  23    -0.115741014381E+04   -0.33703E-03   -0.82888E-05  1919   0.202E-02    0.110E-01
RMM:  24    -0.115741021877E+04   -0.74958E-04   -0.37244E-05  1795   0.137E-02    0.161E-01
RMM:  25    -0.115741018881E+04    0.29964E-04   -0.16196E-05  1598   0.862E-03    0.150E-01
RMM:  26    -0.115741018327E+04    0.55379E-05   -0.74950E-06  1461   0.611E-03    0.115E-01
RMM:  27    -0.115741019785E+04   -0.14583E-04   -0.41424E-06  1392   0.453E-03    0.646E-02
RMM:  28    -0.115741022020E+04   -0.22350E-04   -0.32168E-06  1330   0.410E-03    0.350E-02
RMM:  29    -0.115741023485E+04   -0.14648E-04   -0.23070E-06  1276   0.358E-03    0.351E-02
RMM:  30    -0.115741023752E+04   -0.26673E-05   -0.13359E-06  1241   0.269E-03    0.226E-02
RMM:  31    -0.115741024098E+04   -0.34668E-05   -0.82959E-07  1192   0.214E-03    0.113E-02
RMM:  32    -0.115741024492E+04   -0.39376E-05   -0.54924E-07  1152   0.167E-03    0.573E-03
RMM:  33    -0.115741024758E+04   -0.26642E-05   -0.35997E-07  1085   0.129E-03    0.458E-03
RMM:  34    -0.115741024991E+04   -0.23238E-05   -0.24985E-07  1052   0.923E-04    0.319E-03
RMM:  35    -0.115741025224E+04   -0.23273E-05   -0.20114E-07  1036   0.800E-04    0.563E-03
RMM:  36    -0.115741025418E+04   -0.19433E-05   -0.16587E-07   991   0.654E-04    0.654E-03
RMM:  37    -0.115741025648E+04   -0.22978E-05   -0.16028E-07   957   0.605E-04    0.367E-03
RMM:  38    -0.115741025875E+04   -0.22735E-05   -0.15651E-07   955   0.577E-04    0.115E-03
RMM:  39    -0.115741026035E+04   -0.16040E-05   -0.13603E-07   925   0.550E-04    0.198E-03
RMM:  40    -0.115741026152E+04   -0.11652E-05   -0.12022E-07   911   0.511E-04    0.326E-03
RMM:  41    -0.115741026222E+04   -0.70359E-06   -0.95128E-08   858   0.473E-04
 373 F= -.11657619E+04 E0= -.11657412E+04  d E =-.250676E-01  mag=    21.3348
       N       E                     dE             d eps       ncg     rms          rms(c)
DAV:   1    -0.115738222938E+04    0.28032E-01   -0.13277E+01  2004   0.808E+00    0.105E+00
RMM:   2    -0.115744461586E+04   -0.62386E-01   -0.32402E-01  2101   0.127E+00    0.324E+00
RMM:   3    -0.115743011716E+04    0.14499E-01   -0.62074E-02  2201   0.588E-01    0.366E+00
RMM:   4    -0.115742574905E+04    0.43681E-02   -0.26829E-02  2499   0.341E-01    0.281E+00
RMM:   5    -0.115741488242E+04    0.10867E-01   -0.92470E-03  2218   0.214E-01    0.119E+00
RMM:   6    -0.115741875380E+04   -0.38714E-02   -0.45740E-03  2284   0.142E-01    0.160E+00
RMM:   7    -0.115741890280E+04   -0.14900E-03   -0.41473E-03  2207   0.129E-01    0.146E+00
RMM:   8    -0.115741923171E+04   -0.32892E-03   -0.21056E-03  2168   0.103E-01    0.151E+00
RMM:   9    -0.115741701491E+04    0.22168E-02   -0.11802E-03  2275   0.678E-02    0.109E+00
RMM:  10    -0.115741654434E+04    0.47057E-03   -0.12025E-03  2199   0.737E-02    0.532E-01
RMM:  11    -0.115742213864E+04   -0.55943E-02   -0.17475E-03  2267   0.823E-02    0.277E+00
RMM:  12    -0.115742009890E+04    0.20397E-02   -0.27640E-03  2157   0.113E-01    0.301E+00
RMM:  13    -0.115741614839E+04    0.39505E-02   -0.72444E-04  2191   0.518E-02    0.294E+00
RMM:  14    -0.115741267760E+04    0.34708E-02   -0.35909E-04  2235   0.346E-02    0.182E+00
RMM:  15    -0.115741406371E+04   -0.13861E-02   -0.71487E-04  2103   0.586E-02    0.513E-01
RMM:  16    -0.115741717669E+04   -0.31130E-02   -0.12158E-03  2085   0.726E-02    0.387E-01
RMM:  17    -0.115741786304E+04   -0.68635E-03   -0.46870E-04  2132   0.457E-02    0.696E-01
RMM:  18    -0.115741763281E+04    0.23023E-03   -0.31783E-04  2067   0.374E-02    0.752E-01
RMM:  19    -0.115741717772E+04    0.45509E-03   -0.11176E-04  1943   0.185E-02    0.619E-01
RMM:  20    -0.115741719656E+04   -0.18846E-04   -0.46379E-05  1768   0.142E-02    0.542E-01
RMM:  21    -0.115741723806E+04   -0.41501E-04   -0.27014E-05  1720   0.113E-02    0.426E-01
RMM:  22    -0.115741730973E+04   -0.71669E-04   -0.20707E-05  1711   0.101E-02    0.300E-01
RMM:  23    -0.115741739705E+04   -0.87314E-04   -0.15958E-05  1637   0.920E-03    0.160E-01
RMM:  24    -0.115741748910E+04   -0.92056E-04   -0.14319E-05  1571   0.884E-03    0.722E-02
RMM:  25    -0.115741754315E+04   -0.54047E-04   -0.83560E-06  1462   0.662E-03    0.436E-02
RMM:  26    -0.115741756233E+04   -0.19180E-04   -0.33235E-06  1311   0.420E-03    0.268E-02
RMM:  27    -0.115741757200E+04   -0.96725E-05   -0.17117E-06  1254   0.311E-03    0.110E-02
RMM:  28    -0.115741757984E+04   -0.78371E-05   -0.12435E-06  1222   0.289E-03    0.309E-02
RMM:  29    -0.115741757958E+04    0.26162E-06   -0.85148E-07  1198   0.229E-03
 374 F= -.11657717E+04 E0= -.11657511E+04  d E =-.979371E-02  mag=    21.3355
       N       E                     dE             d eps       ncg     rms          rms(c)
DAV:   1    -0.115737546123E+04    0.42119E-01   -0.15934E+01  1992   0.885E+00    0.116E+00
RMM:   2    -0.115745282737E+04   -0.77366E-01   -0.39660E-01  2089   0.141E+00    0.350E+00
RMM:   3    -0.115743323538E+04    0.19592E-01   -0.77348E-02  2200   0.658E-01    0.358E+00
RMM:   4    -0.115743086827E+04    0.23671E-02   -0.32200E-02  2523   0.372E-01    0.364E+00
RMM:   5    -0.115741424211E+04    0.16626E-01   -0.11003E-02  2218   0.239E-01    0.155E+00
RMM:   6    -0.115741974470E+04   -0.55026E-02   -0.68545E-03  2256   0.175E-01    0.177E+00
RMM:   7    -0.115742019084E+04   -0.44613E-03   -0.50397E-03  2199   0.141E-01    0.158E+00
RMM:   8    -0.115742073608E+04   -0.54524E-03   -0.25353E-03  2161   0.112E-01    0.164E+00
RMM:   9    -0.115741776970E+04    0.29664E-02   -0.15150E-03  2266   0.786E-02    0.108E+00
RMM:  10    -0.115741753831E+04    0.23140E-03   -0.16389E-03  2207   0.846E-02    0.550E-01
RMM:  11    -0.115742202367E+04   -0.44854E-02   -0.20466E-03  2281   0.902E-02    0.233E+00
RMM:  12    -0.115742000431E+04    0.20194E-02   -0.22304E-03  2185   0.101E-01    0.245E+00
RMM:  13    -0.115741693691E+04    0.30674E-02   -0.51594E-04  2266   0.399E-02    0.221E+00
RMM:  14    -0.115741543663E+04    0.15003E-02   -0.57088E-04  2186   0.454E-02    0.128E+00
RMM:  15    -0.115741670390E+04   -0.12673E-02   -0.76430E-04  2148   0.621E-02    0.529E-01
RMM:  16    -0.115741862326E+04   -0.19194E-02   -0.10574E-03  2132   0.717E-02    0.639E-01
RMM:  17    -0.115741858460E+04    0.38664E-04   -0.32706E-04  2130   0.373E-02    0.800E-01
RMM:  18    -0.115741805427E+04    0.53033E-03   -0.17114E-04  2023   0.271E-02    0.595E-01
RMM:  19    -0.115741794722E+04    0.10705E-03   -0.78185E-05  1934   0.182E-02    0.280E-01
RMM:  20    -0.115741822413E+04   -0.27691E-03   -0.66914E-05  1862   0.189E-02    0.127E-01
RMM:  21    -0.115741836518E+04   -0.14105E-03   -0.37874E-05  1798   0.145E-02    0.555E-02
RMM:  22    -0.115741841654E+04   -0.51361E-04   -0.16134E-05  1611   0.940E-03    0.496E-02
RMM:  23    -0.115741842961E+04   -0.13074E-04   -0.66894E-06  1458   0.612E-03    0.389E-02
RMM:  24    -0.115741843698E+04   -0.73695E-05   -0.45991E-06  1392   0.531E-03    0.406E-02
RMM:  25    -0.115741844021E+04   -0.32289E-05   -0.25606E-06  1338   0.383E-03    0.168E-02
RMM:  26    -0.115741844919E+04   -0.89791E-05   -0.14713E-06  1255   0.288E-03    0.307E-02
RMM:  27    -0.115741845279E+04   -0.36028E-05   -0.11338E-06  1227   0.231E-03    0.268E-02
RMM:  28    -0.115741845518E+04   -0.23856E-05   -0.72354E-07  1183   0.194E-03    0.640E-03
RMM:  29    -0.115741846027E+04   -0.50876E-05   -0.53722E-07  1130   0.160E-03    0.182E-02
RMM:  30    -0.115741846146E+04   -0.11952E-05   -0.35910E-07  1114   0.129E-03    0.187E-02
RMM:  31    -0.115741846338E+04   -0.19124E-05   -0.25451E-07  1066   0.102E-03    0.102E-02
RMM:  32    -0.115741846767E+04   -0.42926E-05   -0.23239E-07  1015   0.829E-04    0.255E-03
RMM:  33    -0.115741847024E+04   -0.25716E-05   -0.17295E-07   958   0.765E-04    0.564E-03
RMM:  34    -0.115741847158E+04   -0.13419E-05   -0.11246E-07   867   0.589E-04    0.622E-03
RMM:  35    -0.115741847392E+04   -0.23375E-05   -0.11153E-07   911   0.493E-04    0.495E-03
RMM:  36    -0.115741847717E+04   -0.32508E-05   -0.15254E-07   958   0.513E-04    0.120E-03
RMM:  37    -0.115741848002E+04   -0.28516E-05   -0.16909E-07   970   0.546E-04    0.335E-03
RMM:  38    -0.115741848159E+04   -0.15701E-05   -0.12775E-07   929   0.520E-04    0.372E-03
RMM:  39    -0.115741848279E+04   -0.11991E-05   -0.10723E-07   860   0.458E-04    0.316E-03
RMM:  40    -0.115741848375E+04   -0.95842E-06   -0.84971E-08   784   0.428E-04
