Co–organic framework                  
           1
    24.940564    1.809617   -0.208252
    14.042042   21.858971   -0.299758
    -0.054036   -0.064988    6.609444
   O    C    H    Co   Li
  54  67  16  18   3
Direct configuration=     1
   0.02725412  0.26275215  0.31420589
   0.99472856  0.30687270  0.91279884
   0.07919537  0.26441695  0.69849176
   0.69932673  0.06366592  0.33556847
   0.69269914  0.03620462  0.92635943
   0.62474494  0.12073633  0.73404663
   0.01960845  0.39062254  0.65390052
   0.31771272  0.64424929  0.31627192
   0.37688166  0.60277335  0.94446510
   0.35209413  0.54783785  0.75036150
   0.58196285  0.03806676  0.64587877
   0.31058013  0.03024308  0.38091547
   0.22801664  0.06665568  0.59806729
   0.27736711  0.07356823  0.99408946
   0.62595580  0.32811551  0.44142693
   0.70987957  0.23798595  0.58941878
   0.03297577  0.61116133  0.74522691
   0.07440364  0.53120450  0.95923288
   0.57905260  0.31080645  0.08157697
   0.09847790  0.61728718  0.41413404
   0.13713160  0.65231331  0.63901809
   0.39748178  0.96607984  0.71033821
   0.41808577  0.01770690  0.93085593
   0.14757618  0.59006626  0.02505181
   0.70680182  0.96151415  0.58758561
   0.79101553  0.92324603  0.37703895
   0.73383397  0.91665999  0.97570724
   0.39443012  0.67035761  0.48042449
   0.32257776  0.75754559  0.31111718
   0.99757426  0.37322696  0.25770101
   0.96372326  0.45218239  0.04798816
   0.38613299  0.69446355  0.90561220
   0.91826513  0.38874739  0.58733632
   0.87927882  0.35088582  0.37619302
   0.62751337  0.02449715  0.25477085
   0.60204545  0.97925062  0.02158763
   0.87425848  0.40923151  0.98752940
   0.99025384  0.73205792  0.69551014
   0.01652404  0.68680980  0.08356982
   0.93150522  0.72975174  0.29554087
   0.32606447  0.92517117  0.64666605
   0.34030837  0.94803449  0.03761209
   0.39352243  0.86691620  0.24985782
   0.01416880  0.59127289  0.35537357
   0.69081057  0.37132610  0.70764228
   0.60715739  0.46474776  0.00224996
   0.67137005  0.44123321  0.29341737
   0.44141147  0.95246246  0.31967572
   0.50394302  0.47086719  0.25917024
   0.51214837  0.55080837  0.32180793
   0.56043485  0.46939669  0.53805044
   0.76698919  0.24984696  0.16861926
   0.84331254  0.20304375  0.62008763
   0.87517082  0.11539390  0.40832736
   0.08700514  0.21729895  0.22821099
   0.13589964  0.16628251  0.34859843
   0.05734100  0.26543186  0.87202162
   0.10436679  0.21757254  0.02280426
   0.67598878  0.12128399  0.26153352
   0.67815217  0.16442778  0.38655301
   0.65488706  0.09764389  0.90198412
   0.64886149  0.14154174  0.06211424
   0.02088041  0.43743892  0.57592295
   0.03818227  0.46937273  0.70253301
   0.28010385  0.62520649  0.24680330
   0.22817503  0.63817806  0.36944556
   0.34282684  0.57932072  0.91584911
   0.29158793  0.59302095  0.05680566
   0.54860028  0.01758774  0.55744939
   0.50479839  0.01539871  0.67844381
   0.24792613  0.06915121  0.42634318
   0.20038685  0.11832668  0.27993977
   0.21778377  0.11913655  0.07617347
   0.16911042  0.16980764  0.95466060
   0.66281022  0.26538019  0.46424971
   0.64925731  0.22767370  0.33177152
   0.04934606  0.55513346  0.78772690
   0.03505046  0.52193096  0.63741927
   0.61363838  0.25051665  0.14355941
   0.61741249  0.20548994  0.01058595
   0.13778585  0.63220828  0.46120208
   0.18587815  0.62226741  0.30948560
   0.42605235  0.99286883  0.75650852
   0.46928812  0.99297711  0.60828737
   0.19194864  0.59682574  0.10912577
   0.24707066  0.57993724  0.99269364
   0.76997442  0.92152555  0.54853813
   0.81573906  0.87313476  0.69848049
   0.79502655  0.87156407  0.89690713
   0.84161631  0.82172037  0.02447043
   0.35321743  0.73331675  0.47586015
   0.35054774  0.77279521  0.64397382
   0.98645637  0.42768846  0.22031735
   0.00307091  0.45818485  0.37134658
   0.37329698  0.75037006  0.84446756
   0.37981275  0.78903722  0.97790961
   0.87788384  0.37461977  0.54923869
   0.82792294  0.38743571  0.69942637
   0.59689733  0.00046914  0.20169315
   0.55477850  0.99775959  0.34955677
   0.82657893  0.40674776  0.90458936
   0.77302790  0.42297352  0.02863143
   0.92887054  0.77656168  0.76907487
   0.88184497  0.82634361  0.64104424
   0.95357177  0.72825436  0.12263864
   0.90795375  0.77537201  0.96785184
   0.33910554  0.87131319  0.72170213
   0.33191342  0.83293542  0.59031218
   0.36699951  0.88874201  0.07797421
   0.36246214  0.84916665  0.92312375
   0.01661226  0.54274758  0.43270114
   0.00098842  0.50991911  0.30571693
   0.73008052  0.39033685  0.76221098
   0.78040798  0.37812754  0.63514347
   0.66672764  0.43558558  0.09227962
   0.72387369  0.41749083  0.95967025
   0.47586887  0.97222816  0.40214029
   0.51956833  0.97470238  0.27924105
   0.52418832  0.49792049  0.38016445
   0.85833426  0.15944477  0.51273422
   0.71925845  0.29753212  0.10323393
   0.12333227  0.16501932  0.50493936
   0.70367897  0.14763177  0.53216660
   0.05242704  0.45404905  0.85902320
   0.21906479  0.66291028  0.51537403
   0.49953954  0.03083620  0.83620302
   0.18220180  0.17163528  0.80030368
   0.59525038  0.22146014  0.86058229
   0.25291191  0.55890683  0.84270505
   0.82562052  0.82038478  0.17555666
   0.39735410  0.77280982  0.13181702
   0.77160125  0.43868427  0.18457994
   0.89743118  0.82773622  0.48978649
   0.31425397  0.84948580  0.43684765
   0.98676970  0.52534226  0.14946515
   0.78430097  0.35980871  0.48117025
   0.52521743  0.95898169  0.12174322
   0.35240266  0.58941562  0.53362926
   0.02679141  0.32524143  0.49221715
   0.63874461  0.06012721  0.51708033
   0.07301027  0.65711507  0.83651474
   0.36502358  0.00728461  0.12934253
   0.30061757  0.00460569  0.79407472
   0.56481450  0.38018269  0.21197268
   0.65489389  0.37040618  0.01166964
   0.07507040  0.59053181  0.16060801
   0.65743403  0.97615655  0.81778262
   0.94399436  0.33876434  0.17463830
   0.39086623  0.63304756  0.71009050
   0.72527762  0.98285587  0.16839083
   0.94776683  0.40391559  0.85032571
   0.35975756  0.67334656  0.15418731
   0.65405960  0.38367111  0.41532928
   0.00107426  0.66662615  0.50130211
   0.38102183  0.93491323  0.45253910
   0.59910258  0.51290374  0.45625279
   0.51178994  0.52196508  0.04543221
   0.74730715  0.27464970  0.71098695
Co–organic framework                  
           1
    24.930739    1.826514   -0.203908
    14.051453   21.855850   -0.304582
    -0.052725   -0.067275    6.611459
   O    C    H    Co   Li
  54  67  16  18   3
Direct configuration=     2
   0.02726232  0.26279331  0.31454971
   0.99467787  0.30698950  0.91279696
   0.07916525  0.26442877  0.69877609
   0.69938397  0.06358451  0.33590637
   0.69246351  0.03672422  0.92628181
   0.62481907  0.12067257  0.73353791
   0.01957304  0.39085109  0.65370198
   0.31796445  0.64376209  0.31521272
   0.37671777  0.60246760  0.94741996
   0.35198904  0.54776036  0.75203200
   0.58192382  0.03814447  0.64589133
   0.31060452  0.03015749  0.38081995
   0.22801938  0.06665904  0.59809152
   0.27735386  0.07352557  0.99430151
   0.62577417  0.32824069  0.44151367
   0.71017161  0.23780109  0.59035749
   0.03303187  0.61092806  0.74538203
   0.07435224  0.53118710  0.95935818
   0.57913771  0.31079193  0.08200972
   0.09856939  0.61729937  0.41402215
   0.13675180  0.65251062  0.63931675
   0.39741249  0.96605369  0.71048528
   0.41801814  0.01773310  0.93125890
   0.14717208  0.58988379  0.02473802
   0.70688069  0.96149211  0.58774681
   0.79107856  0.92328499  0.37738024
   0.73413662  0.91627403  0.97515019
   0.39455660  0.67077282  0.47881456
   0.32232907  0.75773053  0.31052506
   0.99762980  0.37310120  0.25810792
   0.96360491  0.45224410  0.04786662
   0.38596844  0.69514428  0.90897306
   0.91838210  0.38868701  0.58753078
   0.87927578  0.35094221  0.37629973
   0.62737859  0.02467798  0.25502791
   0.60194448  0.97930996  0.02192627
   0.87427424  0.40922953  0.98762685
   0.99079266  0.73158106  0.69561980
   0.01638819  0.68701424  0.08355299
   0.93189196  0.72957824  0.29595322
   0.32600018  0.92507092  0.64665138
   0.34028346  0.94802791  0.03781747
   0.39357401  0.86688203  0.24986620
   0.01448737  0.59108629  0.35608787
   0.69081496  0.37125652  0.70749353
   0.60727194  0.46456673  0.00177017
   0.67129539  0.44132497  0.29314315
   0.44131139  0.95240441  0.31940858
   0.50390953  0.47090005  0.25952965
   0.51201908  0.55095301  0.32155675
   0.56036818  0.46943209  0.53772329
   0.76781742  0.24900627  0.16950311
   0.84321866  0.20338128  0.62086921
   0.87501444  0.11572085  0.40896530
   0.08699905  0.21736929  0.22789949
   0.13576111  0.16633421  0.34963378
   0.05729256  0.26547935  0.87195899
   0.10427793  0.21758901  0.02285483
   0.67595026  0.12112110  0.26176541
   0.67818817  0.16452876  0.38694562
   0.65504866  0.09732247  0.90180532
   0.64884747  0.14168480  0.06205338
   0.02079466  0.43730366  0.57552006
   0.03816277  0.46940848  0.70310496
   0.27967537  0.62533191  0.24552428
   0.22810479  0.63835253  0.36921167
   0.34285136  0.57893464  0.91674209
   0.29188879  0.59300959  0.05716549
   0.54862452  0.01750600  0.55699793
   0.50493942  0.01556668  0.67899427
   0.24792592  0.06911656  0.42623193
   0.20049068  0.11824188  0.27962755
   0.21788627  0.11901080  0.07630660
   0.16890731  0.16992876  0.95484831
   0.66250417  0.26558792  0.46349172
   0.64915592  0.22773587  0.33158629
   0.04937979  0.55533521  0.78801884
   0.03513005  0.52177708  0.63767350
   0.61354402  0.25078308  0.14355934
   0.61742634  0.20540526  0.01056731
   0.13794007  0.63207630  0.46087810
   0.18585507  0.62232163  0.30962340
   0.42611816  0.99281150  0.75595417
   0.46928124  0.99282319  0.60785780
   0.19247527  0.59691279  0.10893035
   0.24649096  0.58005409  0.99318493
   0.77007937  0.92148135  0.54879206
   0.81541861  0.87335633  0.69926031
   0.79486246  0.87175119  0.89707004
   0.84158089  0.82182575  0.02489879
   0.35342846  0.73325192  0.47526196
   0.35071057  0.77265041  0.64436767
   0.98637727  0.42771651  0.21959861
   0.00308286  0.45815854  0.37201359
   0.37320698  0.75052176  0.84474526
   0.37975814  0.78906103  0.97870477
   0.87792053  0.37452004  0.54909350
   0.82803894  0.38741963  0.69993268
   0.59695698  0.00043289  0.20168449
   0.55477429  0.99780501  0.34942632
   0.82656067  0.40672404  0.90416934
   0.77314020  0.42304473  0.02911177
   0.92841508  0.77676899  0.76880302
   0.88205774  0.82626168  0.64118802
   0.95335341  0.72835921  0.12273692
   0.90816178  0.77519406  0.96786814
   0.33917842  0.87141815  0.72226799
   0.33189260  0.83295587  0.58953587
   0.36702564  0.88878333  0.07814874
   0.36242737  0.84923255  0.92256075
   0.01675292  0.54283051  0.43290711
   0.00085410  0.50989319  0.30482332
   0.72996744  0.39036040  0.76202472
   0.78032449  0.37809013  0.63510941
   0.66677854  0.43546699  0.09216833
   0.72368905  0.41752939  0.95951884
   0.47596094  0.97229855  0.40211272
   0.51940787  0.97474941  0.27969828
   0.52425232  0.49771925  0.37901261
   0.85858301  0.15885715  0.51134445
   0.71821570  0.29860456  0.10174587
   0.12339456  0.16502896  0.50432209
   0.70368212  0.14761150  0.53223528
   0.05238654  0.45409841  0.85863161
   0.21912594  0.66279187  0.51528227
   0.49949095  0.03083479  0.83604005
   0.18221328  0.17151006  0.79973347
   0.59516087  0.22149191  0.86034346
   0.25295422  0.55886361  0.84253529
   0.82576789  0.82037491  0.17530270
   0.39733577  0.77288794  0.13176777
   0.77155134  0.43869618  0.18388409
   0.89738271  0.82775501  0.48957481
   0.31435066  0.84944426  0.43669261
   0.98681922  0.52528835  0.14969310
   0.78426282  0.35986887  0.48154736
   0.52517034  0.95903586  0.12162123
   0.35325663  0.58946391  0.53512479
   0.02672167  0.32525146  0.49177832
   0.63865561  0.06032484  0.51572379
   0.07434610  0.65727876  0.83700824
   0.36516625  0.00718815  0.12960108
   0.30066514  0.00466491  0.79392202
   0.56467233  0.38021447  0.21193164
   0.65503677  0.37036110  0.01274511
   0.07512716  0.58966218  0.16221055
   0.65760148  0.97580499  0.81975506
   0.94392694  0.33881550  0.17474484
   0.39148713  0.63161409  0.70573918
   0.72518538  0.98282386  0.16797127
   0.94788362  0.40390316  0.84985011
   0.35970702  0.67397777  0.15390526
   0.65401119  0.38360171  0.41494724
  -0.00052942  0.66751355  0.49751666
   0.38092274  0.93504389  0.45278360
   0.59915843  0.51286811  0.45612693
   0.51190470  0.52181675  0.04549576
   0.74711961  0.27479434  0.71071123
Co–organic framework                  
           1
    24.932896    1.822805   -0.204862
    14.049387   21.856535   -0.303523
    -0.053013   -0.066773    6.611017
   O    C    H    Co   Li
  54  67  16  18   3
Direct configuration=     3
   0.02726053  0.26278427  0.31447425
   0.99468902  0.30696385  0.91279735
   0.07917188  0.26442617  0.69871369
   0.69937140  0.06360238  0.33583224
   0.69251533  0.03661009  0.92629873
   0.62480276  0.12068660  0.73364957
   0.01958084  0.39080090  0.65374551
   0.31790906  0.64386914  0.31544529
   0.37675383  0.60253463  0.94677151
   0.35201217  0.54777731  0.75166539
   0.58193241  0.03812740  0.64588855
   0.31059915  0.03017629  0.38084093
   0.22801878  0.06665830  0.59808620
   0.27735677  0.07353493  0.99425498
   0.62581409  0.32821317  0.44149458
   0.71010745  0.23784171  0.59015155
   0.03301952  0.61097928  0.74534804
   0.07436354  0.53119091  0.95933068
   0.57911902  0.31079512  0.08191476
   0.09854928  0.61729672  0.41404672
   0.13683528  0.65246722  0.63925112
   0.39742771  0.96605942  0.71045300
   0.41803302  0.01772732  0.93117045
   0.14726084  0.58992379  0.02480685
   0.70686336  0.96149696  0.58771145
   0.79106472  0.92327644  0.37730535
   0.73407007  0.91635884  0.97527255
   0.39452881  0.67068171  0.47916783
   0.32238372  0.75768989  0.31065494
   0.99761759  0.37312881  0.25801864
   0.96363092  0.45223053  0.04789326
   0.38600475  0.69499470  0.90823535
   0.91835640  0.38870028  0.58748813
   0.87927645  0.35092983  0.37627630
   0.62740823  0.02463825  0.25497145
   0.60196668  0.97929690  0.02185192
   0.87427078  0.40922996  0.98760547
   0.99067422  0.73168586  0.69559589
   0.01641806  0.68696933  0.08355663
   0.93180698  0.72961639  0.29586281
   0.32601430  0.92509292  0.64665461
   0.34028893  0.94802934  0.03777240
   0.39356268  0.86688954  0.24986438
   0.01441738  0.59112730  0.35593119
   0.69081398  0.37127180  0.70752619
   0.60724674  0.46460651  0.00187551
   0.67131179  0.44130482  0.29320331
   0.44133336  0.95241714  0.31946720
   0.50391691  0.47089282  0.25945077
   0.51204749  0.55092123  0.32161183
   0.56038282  0.46942431  0.53779507
   0.76763538  0.24919099  0.16930940
   0.84323934  0.20330713  0.62069762
   0.87504885  0.11564902  0.40882522
   0.08700039  0.21735385  0.22796784
   0.13579158  0.16632280  0.34940653
   0.05730321  0.26546891  0.87197272
   0.10429746  0.21758537  0.02284371
   0.67595871  0.12115685  0.26171454
   0.67818028  0.16450659  0.38685944
   0.65501311  0.09739307  0.90184463
   0.64885057  0.14165339  0.06206671
   0.02081347  0.43733335  0.57560849
   0.03816708  0.46940062  0.70297943
   0.27976949  0.62530432  0.24580489
   0.22812024  0.63831422  0.36926296
   0.34284596  0.57901939  0.91654618
   0.29182270  0.59301213  0.05708657
   0.54861918  0.01752396  0.55709702
   0.50490847  0.01552982  0.67887346
   0.24792596  0.06912417  0.42625635
   0.20046785  0.11826052  0.27969610
   0.21786374  0.11903842  0.07627742
   0.16895196  0.16990213  0.95480707
   0.66257141  0.26554227  0.46365799
   0.64917820  0.22772221  0.33162692
   0.04937241  0.55529091  0.78795474
   0.03511255  0.52181088  0.63761774
   0.61356478  0.25072456  0.14355930
   0.61742329  0.20542386  0.01057142
   0.13790616  0.63210532  0.46094924
   0.18586015  0.62230972  0.30959315
   0.42610368  0.99282412  0.75607584
   0.46928273  0.99285700  0.60795209
   0.19235957  0.59689378  0.10897330
   0.24661836  0.58002831  0.99307701
   0.77005632  0.92149107  0.54873635
   0.81548906  0.87330760  0.69908909
   0.79489854  0.87171007  0.89703423
   0.84158869  0.82180259  0.02480476
   0.35338207  0.73326621  0.47539328
   0.35067479  0.77268223  0.64428129
   0.98639464  0.42771035  0.21975633
   0.00308025  0.45816430  0.37186722
   0.37322678  0.75048843  0.84468428
   0.37977017  0.78905577  0.97853025
   0.87791245  0.37454195  0.54912538
   0.82801346  0.38742317  0.69982159
   0.59694387  0.00044086  0.20168641
   0.55477522  0.99779504  0.34945494
   0.82656467  0.40672925  0.90426152
   0.77311555  0.42302910  0.02900636
   0.92851516  0.77672340  0.76886258
   0.88201098  0.82627971  0.64115651
   0.95340140  0.72833615  0.12271530
   0.90811605  0.77523317  0.96786462
   0.33916243  0.87139511  0.72214380
   0.33189716  0.83295140  0.58970624
   0.36701991  0.88877425  0.07811044
   0.36243501  0.84921809  0.92268429
   0.01672203  0.54281232  0.43286192
   0.00088358  0.50989888  0.30501942
   0.72999229  0.39035521  0.76206558
   0.78034283  0.37809833  0.63511688
   0.66676734  0.43549304  0.09219278
   0.72372962  0.41752089  0.95955204
   0.47594072  0.97228312  0.40211877
   0.51944314  0.97473904  0.27959791
   0.52423821  0.49776347  0.37926544
   0.85852826  0.15898625  0.51164957
   0.71844489  0.29836893  0.10207212
   0.12338086  0.16502687  0.50445756
   0.70368143  0.14761595  0.53222021
   0.05239543  0.45408757  0.85871753
   0.21911249  0.66281789  0.51530243
   0.49950162  0.03083509  0.83607581
   0.18221073  0.17153757  0.79985863
   0.59518054  0.22148492  0.86039585
   0.25294492  0.55887312  0.84257256
   0.82573550  0.82037711  0.17535846
   0.39733980  0.77287079  0.13177856
   0.77156229  0.43869357  0.18403679
   0.89739336  0.82775088  0.48962126
   0.31432940  0.84945340  0.43672665
   0.98680834  0.52530019  0.14964309
   0.78427122  0.35985564  0.48146458
   0.52518069  0.95902396  0.12164798
   0.35306904  0.58945343  0.53479670
   0.02673699  0.32524925  0.49187461
   0.63867515  0.06028147  0.51602145
   0.07405262  0.65724306  0.83690010
   0.36513490  0.00720935  0.12954437
   0.30065469  0.00465192  0.79395552
   0.56470357  0.38020747  0.21194062
   0.65500540  0.37037100  0.01250912
   0.07511464  0.58985309  0.16185900
   0.65756470  0.97588217  0.81932227
   0.94394176  0.33880425  0.17472144
   0.39135045  0.63192906  0.70669444
   0.72520563  0.98283088  0.16806334
   0.94785795  0.40390592  0.84995451
   0.35971818  0.67383917  0.15396705
   0.65402181  0.38361695  0.41503109
  -0.00017707  0.66731850  0.49834703
   0.38094453  0.93501517  0.45272991
   0.59914615  0.51287595  0.45615456
   0.51187947  0.52184934  0.04548185
   0.74716082  0.27476255  0.71077169
Co–organic framework                  
           1
    24.936260    1.817018   -0.206349
    14.046164   21.857604   -0.301871
    -0.053462   -0.065990    6.610327
   O    C    H    Co   Li
  54  67  16  18   3
Direct configuration=     4
   0.02725774  0.26277016  0.31435652
   0.99470641  0.30692383  0.91279796
   0.07918221  0.26442210  0.69861633
   0.69935178  0.06363027  0.33571657
   0.69259615  0.03643207  0.92632516
   0.62477733  0.12070847  0.73382377
   0.01959300  0.39072262  0.65381344
   0.31782270  0.64403610  0.31580808
   0.37681004  0.60263923  0.94575985
   0.35204822  0.54780378  0.75109344
   0.58194579  0.03810077  0.64588423
   0.31059078  0.03020561  0.38087365
   0.22801784  0.06665715  0.59807791
   0.27736131  0.07354953  0.99418238
   0.62587635  0.32817025  0.44146483
   0.71000738  0.23790507  0.58983024
   0.03300027  0.61105919  0.74529498
   0.07438115  0.53119685  0.95928777
   0.57908987  0.31080010  0.08176662
   0.09851793  0.61729256  0.41408504
   0.13696547  0.65239954  0.63914876
   0.39745146  0.96606835  0.71040264
   0.41805621  0.01771832  0.93103246
   0.14739929  0.58998620  0.02491425
   0.70683634  0.96150452  0.58765628
   0.79104314  0.92326310  0.37718850
   0.73396628  0.91649112  0.97546340
   0.39448547  0.67053958  0.47971898
   0.32246895  0.75762651  0.31085759
   0.99759856  0.37317189  0.25787936
   0.96367148  0.45220937  0.04793484
   0.38606133  0.69476140  0.90708450
   0.91831631  0.38872099  0.58742158
   0.87927751  0.35091051  0.37623976
   0.62745445  0.02457627  0.25488337
   0.60200130  0.97927655  0.02173595
   0.87426538  0.40923065  0.98757211
   0.99048952  0.73184931  0.69555853
   0.01646464  0.68689927  0.08356233
   0.93167444  0.72967589  0.29572173
   0.32603632  0.92512724  0.64665964
   0.34029748  0.94803159  0.03770207
   0.39354499  0.86690125  0.24986152
   0.01430820  0.59119127  0.35568672
   0.69081247  0.37129564  0.70757713
   0.60720744  0.46466856  0.00203984
   0.67133738  0.44127338  0.29329716
   0.44136764  0.95243701  0.31955866
   0.50392840  0.47088155  0.25932770
   0.51209181  0.55087167  0.32169778
   0.56040566  0.46941218  0.53790706
   0.76735147  0.24947909  0.16900710
   0.84327158  0.20319148  0.62042994
   0.87510250  0.11553698  0.40860671
   0.08700248  0.21732977  0.22807448
   0.13583909  0.16630504  0.34905202
   0.05731981  0.26545264  0.87199415
   0.10432791  0.21757971  0.02282638
   0.67597190  0.12121263  0.26163517
   0.67816797  0.16447200  0.38672501
   0.65495769  0.09750321  0.90190594
   0.64885539  0.14160439  0.06208752
   0.02084283  0.43737967  0.57574644
   0.03817378  0.46938835  0.70278360
   0.27991631  0.62526131  0.24624270
   0.22814432  0.63825445  0.36934300
   0.34283753  0.57915161  0.91624052
   0.29171960  0.59301608  0.05696343
   0.54861085  0.01755198  0.55725161
   0.50486018  0.01547230  0.67868499
   0.24792602  0.06913604  0.42629445
   0.20043224  0.11828960  0.27980304
   0.21782860  0.11908151  0.07623188
   0.16902158  0.16986059  0.95474274
   0.66267630  0.26547108  0.46391741
   0.64921295  0.22770090  0.33169031
   0.04936089  0.55522181  0.78785476
   0.03508527  0.52186359  0.63753075
   0.61359715  0.25063329  0.14355925
   0.61741853  0.20545286  0.01057782
   0.13785329  0.63215057  0.46106022
   0.18586807  0.62229114  0.30954595
   0.42608110  0.99284378  0.75626566
   0.46928505  0.99290973  0.60809920
   0.19217910  0.59686409  0.10904029
   0.24681705  0.57998815  0.99290867
   0.77002035  0.92150622  0.54864944
   0.81559893  0.87323162  0.69882199
   0.79495480  0.87164594  0.89697839
   0.84160086  0.82176648  0.02465807
   0.35330972  0.73328848  0.47559814
   0.35061898  0.77273185  0.64414650
   0.98642172  0.42770075  0.22000240
   0.00307617  0.45817330  0.37163885
   0.37325765  0.75043644  0.84458915
   0.37978891  0.78904758  0.97825799
   0.87789986  0.37457612  0.54917512
   0.82797372  0.38742869  0.69964826
   0.59692342  0.00045329  0.20168939
   0.55477666  0.99777949  0.34949959
   0.82657091  0.40673739  0.90440533
   0.77307709  0.42300472  0.02884191
   0.92867127  0.77665229  0.76895554
   0.88193806  0.82630781  0.64110734
   0.95347625  0.72830018  0.12268159
   0.90804474  0.77529416  0.96785911
   0.33913749  0.87135915  0.72195005
   0.33190427  0.83294441  0.58997202
   0.36701096  0.88876010  0.07805068
   0.36244691  0.84919552  0.92287703
   0.01667384  0.54278394  0.43279141
   0.00092958  0.50990775  0.30532535
   0.73003103  0.39034713  0.76212932
   0.78037144  0.37811113  0.63512853
   0.66674988  0.43553367  0.09223091
   0.72379290  0.41750765  0.95960384
   0.47590917  0.97225903  0.40212821
   0.51949815  0.97472289  0.27944132
   0.52421621  0.49783245  0.37965985
   0.85844289  0.15918762  0.51212556
   0.71880232  0.29800142  0.10258120
   0.12335950  0.16502360  0.50466891
   0.70368035  0.14762289  0.53219670
   0.05240931  0.45407067  0.85885159
   0.21909152  0.66285846  0.51533389
   0.49951827  0.03083557  0.83613160
   0.18220677  0.17158048  0.80005388
   0.59521121  0.22147403  0.86047760
   0.25293040  0.55888793  0.84263069
   0.82568499  0.82038053  0.17544544
   0.39734609  0.77284403  0.13179540
   0.77157938  0.43868950  0.18427503
   0.89740997  0.82774444  0.48969372
   0.31429626  0.84946766  0.43677976
   0.98679137  0.52531866  0.14956507
   0.78428431  0.35983502  0.48133545
   0.52519683  0.95900540  0.12168974
   0.35277644  0.58943704  0.53428480
   0.02676087  0.32524582  0.49202485
   0.63870564  0.06021380  0.51648585
   0.07359488  0.65718728  0.83673135
   0.36508600  0.00724241  0.12945589
   0.30063839  0.00463165  0.79400780
   0.56475230  0.38019655  0.21195464
   0.65495646  0.37038644  0.01214093
   0.07509513  0.59015091  0.16131050
   0.65750733  0.97600256  0.81864705
   0.94396488  0.33878671  0.17468494
   0.39113735  0.63242031  0.70818464
   0.72523723  0.98284184  0.16820698
   0.94781791  0.40391022  0.85011736
   0.35973557  0.67362298  0.15406349
   0.65403838  0.38364072  0.41516189
   0.00037250  0.66701431  0.49964264
   0.38097851  0.93497039  0.45264616
   0.59912700  0.51288817  0.45619767
   0.51184013  0.52190017  0.04546015
   0.74722510  0.27471298  0.71086603
Co–organic framework                  
           1
    24.930436    1.825460   -0.205896
    14.050326   21.856642   -0.304498
    -0.053281   -0.066902    6.610772
   O    C    H    Co   Li
  54  67  16  18   3
Direct configuration=     5
   0.02726715  0.26278324  0.31447906
   0.99468401  0.30697644  0.91281754
   0.07918289  0.26441949  0.69868625
   0.69937472  0.06356410  0.33587677
   0.69257286  0.03653342  0.92635281
   0.62482422  0.12065497  0.73358613
   0.01958181  0.39079357  0.65371800
   0.31793616  0.64379844  0.31531027
   0.37676721  0.60250343  0.94700552
   0.35200939  0.54774037  0.75171548
   0.58193663  0.03812611  0.64586263
   0.31061768  0.03015269  0.38082824
   0.22802649  0.06665590  0.59808606
   0.27738614  0.07350630  0.99424957
   0.62578606  0.32821299  0.44151132
   0.71001415  0.23788195  0.58992915
   0.03301857  0.61103544  0.74528022
   0.07435953  0.53118230  0.95938328
   0.57910652  0.31080887  0.08192928
   0.09854381  0.61730389  0.41403734
   0.13679976  0.65248708  0.63920813
   0.39742600  0.96606589  0.71047154
   0.41803750  0.01770756  0.93105336
   0.14727333  0.58991292  0.02488234
   0.70683641  0.96152014  0.58779617
   0.79107586  0.92328336  0.37731941
   0.73402534  0.91637494  0.97536550
   0.39459969  0.67066936  0.47891284
   0.32234499  0.75773711  0.31070068
   0.99761513  0.37314125  0.25798193
   0.96361281  0.45224018  0.04784842
   0.38599053  0.69504681  0.90851008
   0.91837003  0.38868381  0.58748858
   0.87927647  0.35093214  0.37625787
   0.62739551  0.02465622  0.25496705
   0.60195917  0.97929882  0.02190567
   0.87427201  0.40923563  0.98760978
   0.99066053  0.73167284  0.69562469
   0.01641901  0.68697461  0.08351840
   0.93179931  0.72962919  0.29595699
   0.32600029  0.92513687  0.64663164
   0.34027498  0.94806147  0.03778494
   0.39356711  0.86689584  0.24987396
   0.01446268  0.59111665  0.35601953
   0.69081936  0.37126371  0.70750198
   0.60724588  0.46460071  0.00180806
   0.67129663  0.44132435  0.29319404
   0.44134833  0.95241704  0.31948016
   0.50389494  0.47088560  0.25940806
   0.51203720  0.55091085  0.32156276
   0.56035938  0.46944391  0.53772013
   0.76720643  0.24961643  0.16866745
   0.84333361  0.20306840  0.62011900
   0.87515586  0.11536097  0.40813306
   0.08699460  0.21735336  0.22810419
   0.13581512  0.16632246  0.34918260
   0.05727850  0.26548602  0.87199397
   0.10427825  0.21759471  0.02283683
   0.67593971  0.12122131  0.26176845
   0.67817773  0.16447018  0.38677693
   0.65494408  0.09752016  0.90179786
   0.64886804  0.14160900  0.06208182
   0.02081931  0.43736375  0.57569362
   0.03814408  0.46939548  0.70284676
   0.27977263  0.62534126  0.24570039
   0.22807287  0.63833596  0.36923048
   0.34286553  0.57899289  0.91681808
   0.29173718  0.59298357  0.05705542
   0.54863358  0.01753425  0.55713268
   0.50488114  0.01550500  0.67872943
   0.24791286  0.06912834  0.42622545
   0.20044911  0.11826426  0.27978798
   0.21783116  0.11906338  0.07626003
   0.16898257  0.16987307  0.95476257
   0.66265999  0.26550154  0.46393593
   0.64916263  0.22774152  0.33160928
   0.04938247  0.55526245  0.78797079
   0.03512422  0.52181203  0.63764475
   0.61357269  0.25069718  0.14352458
   0.61740232  0.20547331  0.01056118
   0.13789302  0.63209915  0.46095411
   0.18587994  0.62232652  0.30961473
   0.42608396  0.99282767  0.75617216
   0.46932346  0.99287342  0.60803668
   0.19223336  0.59691284  0.10900440
   0.24670856  0.58002207  0.99295299
   0.77007026  0.92148738  0.54879845
   0.81552452  0.87329070  0.69906246
   0.79494686  0.87167392  0.89704005
   0.84162827  0.82179382  0.02473901
   0.35335860  0.73332780  0.47525966
   0.35067325  0.77270447  0.64418468
   0.98640122  0.42768971  0.21983532
   0.00305847  0.45816819  0.37172878
   0.37322472  0.75050431  0.84490226
   0.37973669  0.78911365  0.97845025
   0.87792647  0.37454027  0.54919896
   0.82800217  0.38740459  0.69974588
   0.59693489  0.00044545  0.20175370
   0.55476279  0.99779266  0.34942661
   0.82657649  0.40673587  0.90433291
   0.77307622  0.42301916  0.02882783
   0.92862109  0.77662555  0.76882016
   0.88195470  0.82633270  0.64116548
   0.95345117  0.72831159  0.12261012
   0.90805147  0.77527596  0.96789274
   0.33916035  0.87135028  0.72202865
   0.33192780  0.83294104  0.58986773
   0.36702928  0.88874849  0.07807538
   0.36245133  0.84921626  0.92281175
   0.01672400  0.54274353  0.43282215
   0.00090324  0.50991575  0.30524988
   0.72997953  0.39035919  0.76205458
   0.78035807  0.37810736  0.63519323
   0.66677770  0.43549256  0.09216487
   0.72376802  0.41752569  0.95957791
   0.47590070  0.97227278  0.40210192
   0.51946249  0.97474528  0.27950439
   0.52424380  0.49778921  0.37924506
   0.85832616  0.15952864  0.51292909
   0.71892511  0.29788808  0.10274447
   0.12337078  0.16503000  0.50455818
   0.70368554  0.14761594  0.53225543
   0.05239724  0.45408566  0.85875484
   0.21912544  0.66280449  0.51531603