Co–organic framework                  
           1
    25.865957    0.524745   -0.340519
    13.389604   22.605923   -0.334669
    -0.089245   -0.050288    6.750497
   O    C    H    Co   Li
  54  67  16  18   3
Direct configuration=     1
   0.05637329  0.26399323  0.29811349
   0.03062587  0.30647331  0.92644608
   0.10363353  0.26697825  0.70291760
   0.69229600  0.05585876  0.33195820
   0.67301348  0.03549962  0.95522205
   0.63876920  0.10741915  0.73306690
   0.02325661  0.40198209  0.64328413
   0.26738085  0.68921810  0.32603472
   0.31808370  0.65195192  0.95334414
   0.28586266  0.60266762  0.76168059
   0.58215099  0.02927885  0.65272932
   0.29734714  0.03567815  0.34959647
   0.22675596  0.07821721  0.58294019
   0.27521995  0.08303682  0.99190590
   0.66277076  0.29003508  0.49860707
   0.73499561  0.20217928  0.62222737
   0.00842972  0.63550723  0.72558374
   0.03747371  0.56581113  0.95413770
   0.64901742  0.27408706  0.08044910
   0.05228360  0.66302604  0.39891004
   0.09227494  0.69306152  0.63550561
   0.36880524  0.00018761  0.68605464
   0.40870676  0.02814070  0.93053681
   0.09873327  0.63639276  0.03173131
   0.70026017  0.96171162  0.61665615
   0.77276024  0.92341789  0.39146923
   0.72643861  0.91862334  0.98694712
   0.35494360  0.70285808  0.49485435
   0.29838469  0.78361382  0.31873713
   0.00482904  0.37868481  0.26508920
   0.96952075  0.45065029  0.04251495
   0.34144826  0.73270873  0.91061166
   0.95644949  0.35678303  0.58915539
   0.92179345  0.32027647  0.35746424
   0.62605476  0.01039867  0.28205124
   0.59056254  0.97557863  0.04752293
   0.91268581  0.37401617  0.96266197
   0.95427954  0.75221447  0.69474925
   0.98025903  0.70879743  0.06511659
   0.90708953  0.74583668  0.28797376
   0.31008100  0.94518581  0.64637245
   0.33285061  0.96504185  0.01349914
   0.36423146  0.89446743  0.24142482
   0.98714545  0.61349398  0.35241102
   0.75882427  0.30431898  0.65431891
   0.68198681  0.37399438  0.96619328
   0.73495601  0.38007031  0.23900642
   0.41770232  0.97452060  0.32854279
   0.57573081  0.42441655  0.25009474
   0.60397018  0.49089621  0.22369312
   0.63616094  0.43126571  0.48849339
   0.82649847  0.19505759  0.25729296
   0.86528740  0.13609057  0.69695501
   0.85769480  0.06105041  0.52923885
   0.10879225  0.22049304  0.21885582
   0.14999592  0.17322402  0.33985339
   0.08510118  0.26667765  0.87474233
   0.12508772  0.21981430  0.01766986
   0.68376041  0.10679224  0.25871306
   0.69317743  0.14315506  0.38996728
   0.65811857  0.08876905  0.90706768
   0.66575613  0.12615851  0.05913752
   0.01418064  0.45277512  0.56710091
   0.02050184  0.49214912  0.69427018
   0.22912021  0.67141637  0.25554177
   0.18043596  0.68253649  0.37508962
   0.28209248  0.63134497  0.92430033
   0.23583473  0.64284515  0.06690251
   0.54253990  0.01649093  0.56835497
   0.49761107  0.01916738  0.68735903
   0.24514773  0.07777234  0.40935740
   0.20581608  0.12647535  0.27100812
   0.22240733  0.12619762  0.07062418
   0.18129929  0.17345976  0.94972357
   0.69455232  0.23157309  0.49414720
   0.68172506  0.19897974  0.33721415
   0.01992950  0.58387370  0.77870295
   0.01133464  0.54637880  0.63051504
   0.66109867  0.22013248  0.14119150
   0.65475913  0.18237676  0.00563502
   0.09181308  0.67575309  0.45818589
   0.13813782  0.66711846  0.31482721
   0.40864321  0.01157370  0.75169648
   0.45524829  0.00552898  0.61457840
   0.14141572  0.64401591  0.11788660
   0.19171619  0.63022776  0.00384515
   0.75515015  0.92337895  0.56488836
   0.79721206  0.87873483  0.71041830
   0.78093215  0.87849723  0.91074111
   0.82478366  0.83407254  0.03496893
   0.32408418  0.76139905  0.48322613
   0.32385644  0.80008182  0.64515431
   0.98977930  0.43171818  0.21564843
   0.99784647  0.46948766  0.36430620
   0.33755383  0.78300607  0.84742687
   0.34483505  0.82092373  0.97916108
   0.92015878  0.33935523  0.53363671
   0.87598783  0.34305253  0.67466965
   0.58880508  0.99459621  0.22344267
   0.54360881  0.99968064  0.36455812
   0.87334729  0.36108690  0.87728403
   0.82700931  0.36518986  0.99417949
   0.89960579  0.79203770  0.77083407
   0.85559518  0.83624341  0.64637709
   0.92506232  0.74673412  0.11586157
   0.88319062  0.79159762  0.97094537
   0.31900645  0.89394484  0.71871005
   0.31301754  0.85544808  0.58726153
   0.34502021  0.91316913  0.06689507
   0.33585647  0.87576038  0.91956652
   0.99535059  0.56293398  0.42779271
   0.98845219  0.52386709  0.30079320
   0.79197259  0.32732710  0.72363146
   0.83590033  0.32587175  0.60451088
   0.73590961  0.35899422  0.05307221
   0.78555079  0.35031972  0.92203864
   0.45680051  0.98826323  0.41165411
   0.50145987  0.98569573  0.29234715
   0.60389915  0.45037372  0.32569319
   0.86065135  0.09890879  0.61165916
   0.78262780  0.23368566  0.17914978
   0.13785789  0.17317544  0.49316840
   0.70888263  0.12740274  0.54004017
   0.03275540  0.47983615  0.84895045
   0.17369751  0.70578954  0.51774276
   0.49600674  0.03217701  0.84269978
   0.19350751  0.17359916  0.79648896
   0.64060163  0.19732766  0.85376288
   0.19473356  0.61157265  0.85555832
   0.81296983  0.83310513  0.18794650
   0.35673802  0.80822160  0.13349967
   0.82451994  0.37949612  0.14845038
   0.86728681  0.83711374  0.49316607
   0.30180806  0.86831736  0.43270082
   0.97618093  0.53618550  0.14610643
   0.83985774  0.30991448  0.45144891
   0.50311370  0.97263991  0.13699389
   0.28850362  0.64238025  0.54862994
   0.04331100  0.32492625  0.50429937
   0.64153615  0.04708156  0.52947484
   0.03451373  0.69131270  0.82999087
   0.35632251  0.02324047  0.12746231
   0.28459923  0.02445557  0.78719647
   0.62447296  0.33891082  0.26480005
   0.71957247  0.29468845  0.07553382
   0.03673985  0.62364833  0.15823876
   0.64645285  0.97927929  0.85360245
   0.97667510  0.32380506  0.16285782
   0.34254792  0.67408076  0.72536093
   0.71157125  0.98015368  0.19113960
   0.97250427  0.39174072  0.83728712
   0.31539393  0.71103385  0.15996648
   0.70530129  0.34043227  0.42477901
   0.96785294  0.69070368  0.49146501
   0.36025767  0.95234850  0.44736746
   0.68494719  0.45697721  0.34586470
   0.60425847  0.44314409  0.99008219
   0.79037475  0.22283222  0.69848542
Co–organic framework                  
           1
    25.837445    0.515286   -0.314774
    13.367643   22.549927   -0.314839
    -0.082500   -0.048205    6.746829
   O    C    H    Co   Li
  54  67  16  18   3
Direct configuration=     2
   0.05612796  0.26402509  0.30054751
   0.03077864  0.30632074  0.92725183
   0.10292303  0.26767284  0.69918898
   0.69214141  0.05608637  0.33159399
   0.67305685  0.03590615  0.95643816
   0.63886249  0.10735449  0.73205201
   0.02353743  0.40042654  0.64541330
   0.26757051  0.68916090  0.32542762
   0.31817125  0.65207216  0.95259960
   0.28570011  0.60319427  0.76196069
   0.58198298  0.02920533  0.65519012
   0.29757711  0.03573627  0.34944197
   0.22678604  0.07844335  0.58102447
   0.27596758  0.08210392  0.99128345
   0.66314395  0.29064892  0.49753817
   0.73508770  0.20213483  0.62252876
   0.00844587  0.63544585  0.72569751
   0.03752224  0.56570078  0.95404863
   0.64917030  0.27398042  0.08126442
   0.05255303  0.66305888  0.39917027
   0.09240681  0.69301488  0.63562666
   0.36886367  0.00014743  0.68605363
   0.40892181  0.02803830  0.92876975
   0.09913290  0.63638303  0.03207064
   0.69886833  0.96251121  0.61976605
   0.77243552  0.92385412  0.39079959
   0.72516378  0.91944875  0.98975179
   0.35480461  0.70312339  0.49540138
   0.29867193  0.78346096  0.31881107
   0.00545737  0.37719220  0.26859981
   0.96966597  0.45034603  0.04272822
   0.34128924  0.73260313  0.91119069
   0.95608709  0.35669712  0.58980639
   0.92182804  0.32034576  0.35664870
   0.62585692  0.01038149  0.28258535
   0.59110524  0.97559254  0.04403952
   0.91201036  0.37423708  0.96120737
   0.95407719  0.75241095  0.69475803
   0.98019727  0.70885416  0.06499222
   0.90694663  0.74596702  0.28774747
   0.31005541  0.94480806  0.64620825
   0.33316283  0.96456320  0.01416655
   0.36422869  0.89448667  0.24124698
   0.98706216  0.61360327  0.35235610
   0.75931411  0.30440161  0.65495179
   0.68235465  0.37357962  0.96713214
   0.73502319  0.37938328  0.24024736
   0.41802166  0.97439693  0.32767098
   0.57604212  0.42411446  0.25020888
   0.60418589  0.49056582  0.22371292
   0.63628086  0.43105975  0.48825871
   0.82572842  0.19576140  0.25625889
   0.86514567  0.13628143  0.69683641
   0.85765949  0.06126993  0.52956054
   0.10831388  0.22111779  0.22153737
   0.15020898  0.17292362  0.33954629
   0.08442662  0.26704837  0.87593650
   0.12518076  0.21987021  0.01634401
   0.68369888  0.10669614  0.25959514
   0.69316581  0.14328356  0.38973219
   0.65826124  0.08846890  0.90772099
   0.66562250  0.12631687  0.05889190
   0.01417117  0.45273981  0.56512305
   0.02061741  0.49189765  0.69435662
   0.22897689  0.67142418  0.25507867
   0.18048534  0.68241365  0.37482245
   0.28204319  0.63122374  0.92549723
   0.23581999  0.64282365  0.06677201
   0.54309958  0.01635894  0.57019623
   0.49730985  0.01922375  0.68713623
   0.24511030  0.07766579  0.41057403
   0.20570508  0.12660944  0.27129432
   0.22268698  0.12611704  0.07173512
   0.18129684  0.17341125  0.94966824
   0.69457434  0.23161745  0.49385531
   0.68169421  0.19897738  0.33733256
   0.01991179  0.58387186  0.77856199
   0.01125999  0.54639101  0.63031987
   0.66112258  0.22000147  0.14100202
   0.65485987  0.18235091  0.00614162
   0.09167638  0.67569831  0.45806179
   0.13818730  0.66713245  0.31499656
   0.40842692  0.01166114  0.75315346
   0.45530683  0.00558128  0.61543365
   0.14124817  0.64398133  0.11742821
   0.19181863  0.63028369  0.00399620
   0.75556040  0.92275686  0.56741808
   0.79725327  0.87870663  0.70985874
   0.78078874  0.87873186  0.90922687
   0.82475714  0.83407873  0.03526323
   0.32406625  0.76134612  0.48323399
   0.32385240  0.80016238  0.64486423
   0.98983221  0.43226209  0.21741151
   0.99781948  0.46938154  0.36432217
   0.33753660  0.78302310  0.84746507
   0.34480008  0.82096018  0.97906868
   0.92057829  0.33944515  0.53397020
   0.87580653  0.34295842  0.67422707
   0.58915988  0.99491644  0.22477767
   0.54365828  0.99943328  0.36327575
   0.87379152  0.36117983  0.87840873
   0.82689752  0.36508844  0.99453093
   0.89984802  0.79187088  0.77061241
   0.85556819  0.83627437  0.64642641
   0.92522171  0.74661570  0.11593649
   0.88306828  0.79170672  0.97084937
   0.31904522  0.89419911  0.71860187
   0.31312304  0.85528250  0.58731219
   0.34499264  0.91320601  0.06620040
   0.33585587  0.87573422  0.91995729
   0.99537087  0.56278873  0.42773507
   0.98849357  0.52395230  0.30100073
   0.79171842  0.32718078  0.72363732
   0.83600682  0.32597016  0.60468777
   0.73533884  0.35914235  0.05455721
   0.78584316  0.35023111  0.92229047
   0.45653924  0.98806392  0.41019974
   0.50159230  0.98574117  0.29250131
   0.60434184  0.44995166  0.32562841
   0.86065244  0.09876592  0.61121300
   0.78252854  0.23381177  0.17949764
   0.13787019  0.17320080  0.49314973
   0.70885731  0.12742943  0.54006433
   0.03278449  0.47982993  0.84898451
   0.17369294  0.70572549  0.51754021
   0.49604756  0.03213704  0.84278391
   0.19351236  0.17358081  0.79657087
   0.64067887  0.19724379  0.85398983
   0.19470899  0.61161251  0.85569035
   0.81300038  0.83309104  0.18796048
   0.35672430  0.80825338  0.13350954
   0.82457020  0.37948767  0.14846413
   0.86730800  0.83709751  0.49317425
   0.30181804  0.86831595  0.43266860
   0.97619100  0.53620436  0.14604589
   0.83983531  0.30994965  0.45158242
   0.50307141  0.97268116  0.13702127
   0.28912625  0.64292846  0.55171059
   0.04441350  0.32622518  0.49704116
   0.64098271  0.04793563  0.53177963
   0.03435597  0.69139217  0.82984453
   0.35373695  0.02424240  0.12836588
   0.28562063  0.02376666  0.78676825
   0.62377761  0.33916495  0.26183050
   0.71970730  0.29476312  0.07295756
   0.03665099  0.62374003  0.15827872
   0.64771030  0.97755888  0.84426372
   0.97689250  0.32318143  0.16123196
   0.34110512  0.67422085  0.72265382
   0.71288269  0.97908610  0.18988965
   0.97194283  0.39234531  0.83919359
   0.31510514  0.71135401  0.15989572
   0.70512790  0.34048983  0.42351935
   0.96817397  0.69059196  0.49198058
   0.36010256  0.95301638  0.44932377
   0.68484327  0.45698296  0.34601656
   0.60439046  0.44301065  0.99097428
   0.79031936  0.22295300  0.69871123
Co–organic framework                  
           1
    25.837691    0.515368   -0.314996
    13.367832   22.550410   -0.315010
    -0.082558   -0.048223    6.746860
   O    C    H    Co   Li
  54  67  16  18   3
Direct configuration=     3
   0.05613008  0.26402482  0.30052651
   0.03077732  0.30632206  0.92724489
   0.10292916  0.26766684  0.69922113
   0.69214274  0.05608440  0.33159713
   0.67305648  0.03590264  0.95642768
   0.63886168  0.10735505  0.73206077
   0.02353501  0.40043998  0.64539491
   0.26756888  0.68916140  0.32543286
   0.31817050  0.65207112  0.95260602
   0.28570151  0.60318972  0.76195828
   0.58198443  0.02920597  0.65516890
   0.29757513  0.03573577  0.34944331
   0.22678578  0.07844139  0.58104099
   0.27596112  0.08211198  0.99128882
   0.66314073  0.29064361  0.49754742
   0.73508691  0.20213521  0.62252616
   0.00844573  0.63544638  0.72569653
   0.03752182  0.56570173  0.95404940
   0.64916898  0.27398134  0.08125739
   0.05255071  0.66305860  0.39916804
   0.09240567  0.69301528  0.63562562
   0.36886316  0.00014778  0.68605364
   0.40891995  0.02803919  0.92878499
   0.09912945  0.63638311  0.03206773
   0.69888035  0.96250431  0.61973920
   0.77243832  0.92385035  0.39080537
   0.72517478  0.91944163  0.98972758
   0.35480581  0.70312110  0.49539666
   0.29866945  0.78346228  0.31881044
   0.00545195  0.37720510  0.26856952
   0.96966472  0.45034865  0.04272638
   0.34129062  0.73260404  0.91118569
   0.95609021  0.35669786  0.58980076
   0.92182774  0.32034517  0.35665574
   0.62585863  0.01038164  0.28258074
   0.59110055  0.97559242  0.04406958
   0.91201618  0.37423518  0.96121990
   0.95407894  0.75240925  0.69475795
   0.98019780  0.70885367  0.06499329
   0.90694786  0.74596590  0.28774942
   0.31005563  0.94481133  0.64620966
   0.33316014  0.96456734  0.01416080
   0.36422871  0.89448651  0.24124851
   0.98706288  0.61360233  0.35235658
   0.75930988  0.30440090  0.65494635
   0.68235148  0.37358320  0.96712405
   0.73502261  0.37938921  0.24023664
   0.41801890  0.97439800  0.32767850
   0.57603944  0.42411707  0.25020790
   0.60418402  0.49056868  0.22371275
   0.63627982  0.43106153  0.48826074
   0.82573506  0.19575532  0.25626780
   0.86514689  0.13627979  0.69683743
   0.85765980  0.06126804  0.52955778
   0.10831802  0.22111240  0.22151425
   0.15020714  0.17292622  0.33954894
   0.08443244  0.26704517  0.87592619
   0.12517996  0.21986973  0.01635544
   0.68369941  0.10669697  0.25958753
   0.69316591  0.14328245  0.38973422
   0.65826001  0.08847149  0.90771535
   0.66562365  0.12631550  0.05889401
   0.01417125  0.45274011  0.56514010
   0.02061641  0.49189983  0.69435587
   0.22897812  0.67142412  0.25508265
   0.18048491  0.68241471  0.37482475
   0.28204362  0.63122479  0.92548691
   0.23582012  0.64282384  0.06677313
   0.54309476  0.01636008  0.57018037
   0.49731245  0.01922326  0.68713814
   0.24511062  0.07766671  0.41056354
   0.20570604  0.12660828  0.27129185
   0.22268457  0.12611774  0.07172554
   0.18129686  0.17341167  0.94966871
   0.69457415  0.23161706  0.49385783
   0.68169448  0.19897740  0.33733154
   0.01991195  0.58387187  0.77856320
   0.01126063  0.54639090  0.63032155
   0.66112237  0.22000260  0.14100365
   0.65485901  0.18235113  0.00613725
   0.09167756  0.67569879  0.45806286
   0.13818687  0.66713233  0.31499510
   0.40842879  0.01166039  0.75314090
   0.45530633  0.00558083  0.61542628
   0.14124962  0.64398163  0.11743215
   0.19181775  0.63028321  0.00399490
   0.75555686  0.92276224  0.56739627
   0.79725292  0.87870688  0.70986357
   0.78078998  0.87872983  0.90923993
   0.82475737  0.83407867  0.03526069
   0.32406640  0.76134658  0.48323392
   0.32385244  0.80016168  0.64486673
   0.98983176  0.43225739  0.21739632
   0.99781972  0.46938246  0.36432203
   0.33753675  0.78302296  0.84746474
   0.34480038  0.82095987  0.97906948
   0.92057467  0.33944437  0.53396734
   0.87580810  0.34295923  0.67423088
   0.58915682  0.99491367  0.22476618
   0.54365785  0.99943542  0.36328680
   0.87378769  0.36117903  0.87839905
   0.82689849  0.36508932  0.99452789
   0.89984592  0.79187232  0.77061432
   0.85556842  0.83627411  0.64642598
   0.92522033  0.74661672  0.11593584
   0.88306933  0.79170578  0.97085020
   0.31904488  0.89419691  0.71860281
   0.31312213  0.85528393  0.58731175
   0.34499288  0.91320569  0.06620639
   0.33585587  0.87573445  0.91995392
   0.99537070  0.56278998  0.42773556
   0.98849321  0.52395156  0.30099894
   0.79172061  0.32718204  0.72363725
   0.83600590  0.32596931  0.60468625
   0.73534376  0.35914107  0.05454439
   0.78584064  0.35023188  0.92228831
   0.45654149  0.98806564  0.41021226
   0.50159116  0.98574078  0.29249998
   0.60433802  0.44995530  0.32562897
   0.86065243  0.09876715  0.61121684
   0.78252940  0.23381068  0.17949464
   0.13787008  0.17320058  0.49314990
   0.70885753  0.12742920  0.54006412
   0.03278424  0.47982999  0.84898422
   0.17369298  0.70572604  0.51754195
   0.49604721  0.03213739  0.84278319
   0.19351232  0.17358097  0.79657017
   0.64067820  0.19724452  0.85398788
   0.19470920  0.61161216  0.85568921
   0.81300012  0.83309116  0.18796036
   0.35672442  0.80825310  0.13350946
   0.82456977  0.37948774  0.14846402
   0.86730781  0.83709766  0.49317418
   0.30181795  0.86831596  0.43266887
   0.97619091  0.53620420  0.14604642
   0.83983551  0.30994935  0.45158127
   0.50307178  0.97268080  0.13702103
   0.28912088  0.64292372  0.55168405
   0.04440398  0.32621395  0.49710381
   0.64098749  0.04792825  0.53175976
   0.03435733  0.69139148  0.82984579
   0.35375926  0.02423375  0.12835803
   0.28561181  0.02377261  0.78677196
   0.62378360  0.33916275  0.26185609
   0.71970613  0.29476247  0.07297978
   0.03665175  0.62373924  0.15827837
   0.64769943  0.97757374  0.84434425
   0.97689062  0.32318681  0.16124598
   0.34111756  0.67421964  0.72267712
   0.71287137  0.97909532  0.18990044
   0.97194768  0.39234009  0.83917714
   0.31510763  0.71135125  0.15989633
   0.70512939  0.34048933  0.42353021
   0.96817120  0.69059292  0.49197615
   0.36010391  0.95301061  0.44930692
   0.68484417  0.45698291  0.34601525
   0.60438933  0.44301180  0.99096658
   0.79031983  0.22295196  0.69870928
Co–organic framework                  
           1
    25.848151    0.518838   -0.324441
    13.375889   22.570953   -0.322285
    -0.085033   -0.048987    6.748206
   O    C    H    Co   Li
  54  67  16  18   3
Direct configuration=     4
   0.05622036  0.26401321  0.29963275
   0.03072126  0.30637818  0.92694917
   0.10318987  0.26741136  0.70058954
   0.69219952  0.05600070  0.33173085
   0.67304071  0.03575316  0.95598177
   0.63882734  0.10737878  0.73243336
   0.02343181  0.40101211  0.64461213
   0.26749917  0.68918239  0.32565591
   0.31813831  0.65202686  0.95287957
   0.28576131  0.60299606  0.76185579
   0.58204631  0.02923311  0.65426530
   0.29749068  0.03571435  0.34950040
   0.22677462  0.07835816  0.58174447
   0.27568640  0.08245496  0.99151736
   0.66300371  0.29041777  0.49794092
   0.73505311  0.20215155  0.62241561
   0.00843980  0.63546895  0.72565473
   0.03750398  0.56574231  0.95408204
   0.64911289  0.27402056  0.08095821
   0.05245180  0.66304649  0.39907292
   0.09235725  0.69303242  0.63558131
   0.36884170  0.00016254  0.68605405
   0.40884083  0.02807676  0.92943382
   0.09898273  0.63638664  0.03194371
   0.69939181  0.96221053  0.61859657
   0.77255758  0.92368994  0.39105118
   0.72564326  0.91913832  0.98869718
   0.35485694  0.70302356  0.49519595
   0.29856396  0.78351846  0.31878353
   0.00522126  0.37775408  0.26728019
   0.96961136  0.45046054  0.04264798
   0.34134904  0.73264292  0.91097282
   0.95622333  0.35672953  0.58956121
   0.92181499  0.32031965  0.35695522
   0.62593132  0.01038800  0.28238439
   0.59090100  0.97558711  0.04534899
   0.91226413  0.37415398  0.96175315
   0.95415327  0.75233702  0.69475466
   0.98022048  0.70883281  0.06503892
   0.90700034  0.74591797  0.28783242
   0.31006495  0.94495025  0.64626950
   0.33304546  0.96474335  0.01391574
   0.36422972  0.89447942  0.24131381
   0.98709348  0.61356214  0.35237673
   0.75913008  0.30437046  0.65471479
   0.68221641  0.37373572  0.96677949
   0.73499793  0.37964192  0.23978051
   0.41790155  0.97444341  0.32799883
   0.57592508  0.42422813  0.25016611
   0.60410476  0.49069016  0.22370543
   0.63623573  0.43113725  0.48834683
   0.82601786  0.19549655  0.25664705
   0.86519896  0.13620961  0.69688097
   0.85767283  0.06118732  0.52943987
   0.10849399  0.22088278  0.22052992
   0.15012883  0.17303666  0.33966164
   0.08468030  0.26690896  0.87548731
   0.12514570  0.21984911  0.01684231
   0.68372206  0.10673235  0.25926356
   0.69317018  0.14323519  0.38982064
   0.65820762  0.08858188  0.90747543
   0.66567273  0.12625727  0.05898415
   0.01417457  0.45275304  0.56586607
   0.02057394  0.49199230  0.69432404
   0.22903071  0.67142125  0.25525246
   0.18046674  0.68245987  0.37492276
   0.28206179  0.63126942  0.92504737
   0.23582552  0.64283174  0.06682099
   0.54288936  0.01640860  0.56950512
   0.49742305  0.01920257  0.68721958
   0.24512445  0.07770594  0.41011679
   0.20574684  0.12655899  0.27118679
   0.22258196  0.12614737  0.07131805
   0.18129775  0.17342951  0.94968897
   0.69456605  0.23160074  0.49396505
   0.68170581  0.19897827  0.33728803
   0.01991844  0.58387255  0.77861492
   0.01128803  0.54638642  0.63039310
   0.66111356  0.22005077  0.14107310
   0.65482205  0.18236064  0.00595141
   0.09172774  0.67571895  0.45810817
   0.13816872  0.66712718  0.31493302
   0.40850834  0.01162830  0.75260587
   0.45528491  0.00556161  0.61511248
   0.14131110  0.64399436  0.11760015
   0.19178015  0.63026263  0.00393965
   0.75540632  0.92299105  0.56646760
   0.79723774  0.87871722  0.71006899
   0.78084255  0.87864351  0.90979581
   0.82476713  0.83407641  0.03515263
   0.32407298  0.76136605  0.48323096
   0.32385391  0.80013204  0.64497329
   0.98981255  0.43205740  0.21674978
   0.99782961  0.46942149  0.36431602
   0.33754308  0.78301670  0.84745071
   0.34481322  0.82094647  0.97910338
   0.92042067  0.33941125  0.53384559
   0.87587462  0.34299386  0.67439299
   0.58902669  0.99479589  0.22427695
   0.54363954  0.99952634  0.36375734
   0.87362467  0.36114482  0.87798691
   0.82693955  0.36512665  0.99439863
   0.89975694  0.79193363  0.77069585
   0.85557834  0.83626273  0.64640787
   0.92516179  0.74666026  0.11590844
   0.88311427  0.79166566  0.97088538
   0.31903068  0.89410339  0.71864284
   0.31308337  0.85534481  0.58729313
   0.34500295  0.91319211  0.06646138
   0.33585612  0.87574408  0.91981045
   0.99536322  0.56284340  0.42775660
   0.98847805  0.52392022  0.30092291
   0.79181392  0.32723589  0.72363461
   0.83596683  0.32593311  0.60462157
   0.73555349  0.35908672  0.05399866
   0.78573328  0.35026443  0.92219618
   0.45663728  0.98813894  0.41074556
   0.50154255  0.98572405  0.29244363
   0.60417539  0.45011047  0.32565292
   0.86065197  0.09881968  0.61138047
   0.78256590  0.23376432  0.17936695
   0.13786557  0.17319125  0.49315679
   0.70886683  0.12741939  0.54005525
   0.03277356  0.47983227  0.84897175
   0.17369463  0.70574959  0.51761623
   0.49603222  0.03215208  0.84275232
   0.19351054  0.17358772  0.79654008
   0.64064984  0.19727536  0.85390459
   0.19471824  0.61159751  0.85564076
   0.81298890  0.83309634  0.18795526
   0.35672947  0.80824142  0.13350585
   0.82455131  0.37949084  0.14845903
   0.86730003  0.83710362  0.49317119
   0.30181428  0.86831648  0.43268071
   0.97618721  0.53619726  0.14606867
   0.83984376  0.30993642  0.45153227
   0.50308732  0.97266564  0.13701097
   0.28889258  0.64272211  0.55055466
   0.04399879  0.32573584  0.49977094
   0.64119104  0.04761429  0.53091386
   0.03441526  0.69136227  0.82989937
   0.35470892  0.02386566  0.12802386
   0.28523661  0.02402582  0.78692983
   0.62403875  0.33906929  0.26294544
   0.71965643  0.29473491  0.07392571
   0.03668440  0.62370553  0.15826368
   0.64723668  0.97820600  0.84777217
   0.97681056  0.32341609  0.16184243
   0.34164717  0.67416824  0.72366900
   0.71238954  0.97948773  0.19035995
   0.97215409  0.39211787  0.83847719
   0.31521372  0.71123354  0.15992224
   0.70519297  0.34046815  0.42399242
   0.96805334  0.69063398  0.49178722
   0.36016112  0.95276506  0.44858929
   0.68488234  0.45698082  0.34595937
   0.60434091  0.44306089  0.99063917
   0.79034021  0.22290755  0.69862644
Co–organic framework                  
           1
    25.841628    0.522267   -0.310121
    13.375929   22.548832   -0.309835
    -0.081366   -0.047453    6.743781
   O    C    H    Co   Li
  54  67  16  18   3
Direct configuration=     5
   0.05606054  0.26400234  0.30104305
   0.03054676  0.30648676  0.92744878
   0.10260689  0.26786628  0.69943616
   0.69214566  0.05594222  0.33172985
   0.67312396  0.03566829  0.95676584
   0.63889351  0.10731844  0.73221970
   0.02354863  0.40041725  0.64526690
   0.26756552  0.68913192  0.32535638
   0.31818931  0.65201976  0.95240034
   0.28566887  0.60326521  0.76179088
   0.58201277  0.02922826  0.65571960
   0.29758623  0.03571244  0.34967846
   0.22670151  0.07844958  0.58197916
   0.27566606  0.08234107  0.99155678
   0.66318845  0.29072206  0.49714055
   0.73503756  0.20215801  0.62237840
   0.00843079  0.63552254  0.72559154
   0.03753312  0.56568603  0.95410817
   0.64906446  0.27400207  0.08114779
   0.05242480  0.66302695  0.39898158
   0.09239714  0.69301650  0.63568740
   0.36879944  0.00011671  0.68606648
   0.40886982  0.02810487  0.92973863
   0.09904905  0.63635884  0.03187862
   0.69910667  0.96229458  0.61972190
   0.77228264  0.92391116  0.39183095
   0.72514647  0.91939286  0.98949263
   0.35490714  0.70295723  0.49552456
   0.29863441  0.78352190  0.31854905
   0.00549879  0.37734892  0.26869967
   0.96976904  0.45023745  0.04339187
   0.34131442  0.73254127  0.91124486
   0.95626696  0.35674004  0.59014869
   0.92187175  0.32034596  0.35656505
   0.62602700  0.01042737  0.28297537
   0.59126306  0.97571775  0.04429675
   0.91228320  0.37430508  0.96165605
   0.95415028  0.75235942  0.69464134
   0.98026472  0.70881483  0.06490786
   0.90694583  0.74595834  0.28795163
   0.31001806  0.94493434  0.64605519
   0.33309447  0.96477835  0.01383161
   0.36423018  0.89444573  0.24122179
   0.98703857  0.61361938  0.35235883
   0.75919005  0.30435045  0.65475323
   0.68209646  0.37376898  0.96692155
   0.73499615  0.37933165  0.24097264
   0.41792916  0.97441355  0.32750910
   0.57600638  0.42408577  0.25008111
   0.60419251  0.49065774  0.22349214
   0.63627990  0.43105986  0.48860533
   0.82624616  0.19531619  0.25721477
   0.86514070  0.13619231  0.69663874
   0.85764028  0.06097737  0.52891354
   0.10845432  0.22107297  0.22115448
   0.15004223  0.17306333  0.33980629
   0.08466903  0.26695862  0.87437927
   0.12505351  0.21998052  0.01696218
   0.68365056  0.10679958  0.25927897
   0.69319405  0.14322120  0.38996233
   0.65819324  0.08870189  0.90738162
   0.66562520  0.12625723  0.05909936
   0.01429635  0.45240713  0.56587471
   0.02061871  0.49181070  0.69402048
   0.22899493  0.67145222  0.25511037
   0.18050402  0.68241957  0.37483179
   0.28216749  0.63119154  0.92570498
   0.23581645  0.64282472  0.06699745
   0.54303951  0.01625027  0.56990694
   0.49736509  0.01926469  0.68732342
   0.24511895  0.07774303  0.40964400
   0.20586480  0.12647832  0.27111956
   0.22274694  0.12608728  0.07128195
   0.18139056  0.17331818  0.94973419
   0.69461902  0.23168225  0.49404603
   0.68165078  0.19905713  0.33733624
   0.01991987  0.58379853  0.77856778
   0.01126294  0.54635934  0.63042751
   0.66111065  0.22004689  0.14119897
   0.65483662  0.18236391  0.00587721
   0.09182945  0.67573464  0.45823528
   0.13812862  0.66711200  0.31487243
   0.40854449  0.01161392  0.75249735
   0.45522493  0.00551425  0.61478988
   0.14134646  0.64401674  0.11776117
   0.19179702  0.63025690  0.00385043
   0.75515805  0.92309862  0.56702580
   0.79719382  0.87874672  0.71002662
   0.78058183  0.87885220  0.90995425
   0.82462276  0.83420770  0.03490747
   0.32404179  0.76145071  0.48354245
   0.32386984  0.80008010  0.64501883
   0.98992843  0.43183124  0.21764201
   0.99782091  0.46940483  0.36432891
   0.33753469  0.78298948  0.84739417
   0.34481539  0.82091412  0.97915454
   0.92038625  0.33938769  0.53376568
   0.87595037  0.34301397  0.67461186
   0.58911544  0.99477055  0.22321072
   0.54380043  0.99945085  0.36379115
   0.87344478  0.36105226  0.87762592
   0.82706333  0.36510879  0.99454484
   0.89972384  0.79197849  0.77057989
   0.85568589  0.83619317  0.64633870
   0.92513119  0.74669367  0.11588727
   0.88311500  0.79166701  0.97089642
   0.31905662  0.89400179  0.71882853
   0.31310797  0.85538681  0.58725509
   0.34508408  0.91303548  0.06679861
   0.33583213  0.87576885  0.91964072
   0.99536360  0.56282862  0.42769744
   0.98847617  0.52396685  0.30087336
   0.79190619  0.32727416  0.72392512
   0.83587384  0.32594408  0.60465449
   0.73563564  0.35899315  0.05402630
   0.78566421  0.35022873  0.92240548
   0.45663457  0.98809999  0.41088371
   0.50154253  0.98570839  0.29217167
   0.60432924  0.44991707  0.32577865
   0.86067094  0.09915775  0.61204138
   0.78197745  0.23425251  0.17838680
   0.13788562  0.17318642  0.49316310
   0.70885142  0.12743493  0.54006365
   0.03280195  0.47980094  0.84904949
   0.17369815  0.70571813  0.51757222